176
step: 1  T=      286.766K  Ek=     6.523863  Ep=    -5.382925  E_gap=     9.603503  Err=       0.0086715376601458  time_stamp= 1672953535.6349
 O        -3.71280        -2.14859        -1.13059        -0.00050        -0.00118         0.00079         3.06577        -1.43432        -0.64310        -0.46888
 O         0.11265         4.15664         3.09701        -0.00829         0.00071         0.00249         2.27546        -1.55269        -0.02430        -0.37640
 O        -1.22517        -0.76430        -4.73719         0.00044         0.00281        -0.00090         2.84771         1.44835         2.14114        -0.36992
 O         3.85387         2.06892         1.39232        -0.00103         0.00080         0.00537         0.67383        -4.10729         2.43276        -0.47023
 O         3.22422        -3.01674        -2.88939        -0.00666        -0.00142         0.00540        -0.40067         2.32612         3.57125        -0.37835
 O        -0.90299        -4.15663        -3.29978         0.00592        -0.00540        -0.00005         0.75446         0.15886         1.37457        -0.47255
 O         0.60900        -0.14021        -1.58859        -0.00524        -0.00620         0.00240        -0.09384        -0.86404        -3.65078        -0.41084
 O         1.83273         1.52816         5.01513        -0.00041        -0.00454        -0.00191         4.00602        -1.18855        -0.81433        -0.47210
 O        -2.01170        -0.34061         4.82253         0.01300        -0.00065        -0.00627        -2.48029         2.12922         0.39019        -0.38194
 O        -0.78837         0.98597         1.16734         0.00572        -0.00293        -0.00281         0.43284        -2.57164         1.15841        -0.41527
 N        -2.82232        -2.38731        -4.49174        -0.00548        -0.00130        -0.00075         1.43189         3.20312         2.91102        -0.37172
 N        -2.92518        -4.82266        -1.33182        -0.00208        -0.00094         0.00022         0.28324        -0.01469        -2.37647        -0.09245
 N         2.76399         0.19993        -0.91856        -0.00235        -0.00108         0.00543         1.45191        -0.26624         0.49539        -0.37090
 N         4.37258         0.81042         3.84783        -0.00737         0.00182        -0.00234        -1.67944        -0.47127         3.26089        -0.09037
 N         2.27820         4.09899         3.83131         0.00543         0.00418         0.00103        -0.65075        -4.59419        -1.97406        -0.37120
 N         1.68563         2.61634         0.93165         0.00106        -0.00331         0.00079         0.65359        -3.46243         1.68392        -0.33145
 N        -2.32705        -0.48223        -1.85051        -0.00050        -0.00428         0.00230         0.94365         1.77688        -3.20865        -0.33483
 N         1.70497        -1.58457        -3.82664        -0.00391         0.00342         0.00111         0.20742         1.54134         1.84095        -0.36663
 N         0.40247        -3.79147        -5.10936        -0.00099        -0.00463         0.00254         1.39109         2.59719        -0.20994        -0.30980
 N        -1.66477         1.71677         3.88927        -0.00028        -0.00359        -0.00421        -0.82413        -1.44572         0.60749        -0.36587
 N        -2.49496        -0.52543         1.32412        -0.00557        -0.00438        -0.00557         1.70718         2.84827         5.08832        -0.37032
 N         0.04733         2.43463         6.06967         0.00085        -0.00049         0.00366         4.01256        -1.31072         1.70045        -0.30980
 C        -3.04413         2.83264         2.15471        -0.00252         0.00323         0.00130        -0.58838         2.84488        -4.35336        -0.11226
 C        -1.11854        -3.87994         0.14255         0.00086         0.00750         0.00161        -0.63331        -1.93929         1.13761        -0.18446
 C        -2.07876        -3.33492        -5.28739         0.00211        -0.00543        -0.00614         0.31563         0.47412         1.46026         0.02358
 C        -2.71835        -1.40733        -0.93076        -0.00340        -0.00535        -0.00038         2.14788        -0.22949        -2.05217         0.30033
 C        -1.92555        -5.10673        -0.27142         0.00494         0.00268         0.00077        -0.08831         0.61111        -2.73079        -0.11736
 C        -1.64736         1.31862         7.32740         0.00678        -0.00415         0.00465        -0.42953         3.51453        -2.40142        -0.16312
 C        -1.95121         2.81620         7.35280         0.00594         0.00729        -0.00217        -0.67476        -0.35485        -0.78400        -0.17524
 C        -1.92276        -2.89434         0.96663        -0.00406         0.00796         0.00415         0.59021         0.02841         1.00536        -0.18437
 C        -1.48727         0.79060         4.88775         0.00517         0.00425        -0.01174        -1.65883         0.32921         0.15761         0.29356
 C        -3.88083         2.56254         0.92179        -0.00911         0.00737         0.00001         1.22668        -0.04932        -0.81658        -0.21884
 C         5.56598         1.57189         6.85335         0.00006         0.00101        -0.00288         4.78678        -3.07368         0.93988        -0.15071
 C         6.44079         3.11020         5.21125        -0.00157        -0.00083        -0.00031        -0.56080        -2.33181         2.94601        -0.14003
 C        -0.70995         3.48982         6.73234         0.00708         0.00484         0.00395        -1.95242         1.74423        -2.45934        -0.03460
 C        -2.99236         1.17990        -3.54489        -0.00837        -0.00187        -0.00331        -1.31656        -0.74460        -0.71477        -0.16214
 C        -2.56514         1.50416         2.78765        -0.00018         0.00341         0.00151        -2.56437        -0.44444         2.62247         0.03425
 C        -1.91602        -1.46468         0.39822         0.00012         0.00080        -0.00471        -2.05437         0.29041         2.58993         0.01734
 C        -0.66278         1.16087         6.14525         0.00190         0.00202         0.00496         0.55322        -2.51993         0.03525         0.01081
 C        -3.72343         1.43448        -4.85408        -0.00261        -0.00826        -0.01106         0.55647         0.53280         1.21699        -0.10829
 C         5.25485         3.84001         5.26170         0.00579        -0.00448         0.00562         1.09608         0.91436         1.34555        -0.14277
 C         1.25530         2.56211         5.44791        -0.00053         0.00243         0.00000         1.88498        -0.80193         0.58342         0.30727
 C        -5.17996         1.03029        -4.79478        -0.00178        -0.00020         0.00221         1.88152         1.48368         1.31103        -0.21441
 C        -3.60857         2.91284        -5.18606         0.00060         0.00396         0.00385         4.10256         2.52495        -0.65261        -0.21051
 C         6.60133         1.97342         6.00725         0.00299        -0.00683        -0.00182         0.46206        -0.20900         0.32960        -0.15524
 C        -1.87074         0.64864         1.69323         0.00069        -0.00380         0.00211         0.55474         1.29241        -3.20099         0.30950
 C         4.37737         2.29958         6.90347        -0.00022         0.00036         0.00781        -0.10035        -1.18172        -0.22810        -0.12523
 C         2.71561         1.72629         0.98184         0.00141         0.00305         0.00208         2.49715        -1.50618        -2.64001         0.29943
 C        -2.27647        -1.14783        -4.19225         0.00245         0.00722        -0.00628        -1.76926        -0.45969        -1.13435         0.29405
 C        -2.99877        -0.29383        -3.11916         0.00338         0.00203        -0.00110         0.11044         3.04334         3.57593         0.01552
 C        -2.90362        -4.53389        -5.77125         0.00170         0.00669         0.00027         4.43752         2.50115        -0.10193        -0.13303
 C        -3.85226         3.62687         3.15922         0.00303        -0.00132        -0.00025         0.81210        -1.93255         1.05257        -0.21177
 C         1.32895         4.09977         2.82617        -0.00512        -0.00956         0.00647         2.75634         0.94662        -0.64215         0.28791
 C        -4.81627        -5.02721        -4.22077        -0.00197        -0.00694        -0.00095         1.50301        -1.60953         0.23412        -0.14170
 C         2.19534        -3.76068        -6.71447         0.00101         0.00776         0.00559        -1.94748         0.34533        -1.79860        -0.17442
 C         0.68100        -3.54351        -6.51858         0.00408         0.00248         0.00575        -2.98923         3.10097        -2.04833        -0.03474
 C        -3.57834        -7.37125        -3.35469         0.00044         0.00432         0.00319         0.81558         0.00290        -2.46114        -0.15091
 C         2.97546         4.26132         6.22749        -0.00440        -0.00191         0.00083        -2.48146        -1.24412         0.07485        -0.13315
 C        -4.83758        -7.02725        -2.86277         0.00167         0.00202        -0.00870        -0.44005         1.23978        -1.28230        -0.15743
 C        -5.45470        -5.85408        -3.29510        -0.00330        -0.00675         0.00322         3.81434         1.21125        -0.75159        -0.13975
 C        -3.54889        -5.36250        -4.71621        -0.00035        -0.00302        -0.00087         2.47293         0.99526         1.62171        -0.09346
 C         1.63714        -4.05463        -4.37666        -0.00614        -0.00265         0.00574         1.46913        -0.50931         0.75213         0.01114
 C         1.86522         3.96992         5.20584        -0.00433        -0.00183        -0.01110        -0.98873         0.51550        -0.46528         0.02408
 C         3.97477        -0.61545         3.73840        -0.00898         0.00109        -0.00320         1.97194        -0.76971        -1.59708        -0.11853
 C        -0.82147        -3.81199        -4.50793         0.00204        -0.00383         0.00339         0.49250        -2.33330        -0.29228         0.30696
 C         4.20893         3.43871         6.10405         0.00055         0.00183         0.00472        -0.94388         1.68828         1.24034        -0.09592
 C         2.44804         0.27874         0.48390         0.00410        -0.00287         0.00102        -3.70784        -0.21716         1.79912         0.01632
 C        -2.93836        -6.54591        -4.27785        -0.00044        -0.00532        -0.00010        -2.97581         0.28864        -0.87661        -0.12509
 C         2.84023        -0.85079         2.74986         0.00194         0.00041         0.00150         1.25409        -0.29250        -1.92762        -0.18369
 C         1.81902         3.99179         1.35624         0.00391         0.00428         0.00632        -2.28283        -2.23387        -0.63702         0.01883
 C         2.23540        -2.84139        -3.63040        -0.00243        -0.00810        -0.00085        -0.49352         2.06960         0.12107         0.29444
 C         1.28602         4.96551        -0.95402         0.00666         0.00238        -0.00240         0.92555        -0.20961        -2.77273        -0.10450
 C         3.28038        -0.72169         1.30668         0.00187         0.00674         0.00244        -0.91091         1.01875        -2.39195        -0.18834
 C         2.81790         2.04736        -3.68137         0.00409         0.00838         0.00063        -1.61791        -0.36869        -0.81376        -0.22199
 C         1.82203        -0.09586        -1.88340         0.00057         0.00392         0.00191         1.35586        -0.09910        -2.20670         0.30755
 C         0.97947         4.98350         0.53537         0.00262         0.00037        -0.00612         1.47703         0.41759        -0.07151        -0.16606
 C         2.06846         0.84095        -4.21416        -0.00186        -0.00092        -0.01014         1.39467         4.24691        -0.28922        -0.11208
 C         1.22729         6.37692        -1.50912         0.00556         0.00175        -0.00381        -3.82489        -2.58643        -0.85724        -0.21363
 C         2.49378         0.56980        -5.64058        -0.00729         0.00327         0.00480         0.11307         1.40968        -1.00940        -0.21091
 C         0.30903         4.08711        -1.71245        -0.00414         0.00316         0.00024         0.59769        -1.15448         2.52631        -0.21417
 C         2.33619        -0.39408        -3.31803         0.00078         0.00190         0.00516        -2.16811         2.18694         1.01984         0.03304
 C         2.65909        -4.48857        -5.45757         0.00168         0.00552        -0.00342         0.44663        -1.84054         1.55522        -0.16421
H        -1.14983         2.56723         3.87103        -0.00304        -0.01157        -0.01457        -0.71824         1.06986        -0.64479         0.26101
H        -4.09500         3.12231        -6.17046        -0.00160        -0.00762        -0.00678         0.16196        -0.04345        -0.05907         0.09174
H         3.18620        -1.73610         0.82021         0.01573        -0.01995         0.02103         0.10056         1.17036        -0.26391         0.11944
H         4.36516        -0.43488         1.23905         0.01170         0.00092        -0.01263         0.09602         1.17559         0.02535         0.09853
H         1.97482        -0.17224         2.98214        -0.00172        -0.00143        -0.00476         0.61169        -0.24594        -0.00232         0.13040
H         2.48562        -1.90675         2.93918         0.00461        -0.02058         0.01557         0.92658        -0.17089         0.23800         0.12329
H        -4.11189         3.53024        -4.41247        -0.00256         0.00430        -0.04513        -0.35924         0.42628         0.29877         0.07812
H        -1.72944        -2.77141        -6.21601         0.02088         0.02667        -0.00287        -0.36268         0.46202         0.29010         0.14159
H        -3.60200        -2.72418        -3.97531        -0.01459        -0.00361        -0.01180         0.88411         0.31074        -0.53136         0.23679
H        -4.75919         1.91734         1.17077        -0.00995         0.00135         0.00990        -0.40022        -0.17274        -0.27341         0.08123
H        -3.27475         2.05904         0.12907        -0.01018         0.00710        -0.00563         0.30929         0.81210         0.21876         0.07310
H        -4.18763         4.58874         2.69709         0.00892         0.00636        -0.00159        -0.56384         0.00180         0.25428         0.09479
H        -3.24810         3.86937         4.06746         0.00008        -0.01872         0.01205        -1.07281        -0.31063        -0.15186         0.07863
H        -4.75153         3.05216         3.47941         0.02638        -0.01054         0.00078        -0.04163        -0.51461         0.12284         0.08231
H        -4.26350         3.52956         0.50880        -0.01616         0.00842        -0.00248        -0.33662        -0.37985         0.72385         0.09800
H        -3.31807        -0.80956         1.80494        -0.00794         0.01302         0.00539         0.31057        -0.65154        -0.76111         0.24722
H        -0.84139        -1.15828         0.19120        -0.00091        -0.00228         0.00949         1.00156        -0.08677        -0.01381         0.15636
H         1.34447         0.04463         0.62317         0.00486         0.02015         0.00366        -0.17345         0.21256         0.45935         0.16183
H        -3.47277         0.94836         3.18164        -0.00712        -0.00084         0.00143         0.19706        -0.40930         0.15580         0.12522
H        -1.47898        -2.86020         1.99943         0.01432        -0.01553        -0.00981         1.35329         0.55823        -0.37509         0.12013
H        -2.13130         3.43094         1.85671         0.01563        -0.00652         0.00262        -1.79756        -0.68117        -0.09597         0.11904
H        -0.66256        -3.39172        -0.76600         0.00608         0.01060        -0.01628        -1.22321        -0.01607         0.56982         0.13152
H         1.46750        -4.85480        -3.60557         0.01283        -0.00846        -0.01316         0.02837         0.36056         0.79041         0.14691
H         3.91517         1.85407        -3.63346         0.00117         0.05035         0.02611        -0.56134        -0.04090        -0.65346         0.08163
H         2.71294        -2.77316        -6.80554         0.00603        -0.00347        -0.02543        -0.22645         0.63722         0.67091         0.10537
H        -2.98265        -3.23605         1.07883         0.00868         0.01479         0.00061        -0.46440        -0.00464         0.11758         0.09875
H        -3.70207        -4.14698        -6.46780         0.00275         0.00315        -0.01485        -0.00480        -0.10677        -0.20742         0.12836
H        -5.34022        -4.13373        -4.59687        -0.02434        -0.02090        -0.00517        -0.74549         0.16951        -0.58331         0.15032
H        -6.45842        -5.59429        -2.93942         0.02954         0.01642        -0.00949        -0.71405         0.18113         0.31993         0.15722
H        -5.36197        -7.70444        -2.16240        -0.00386        -0.01439         0.00987        -0.22355        -0.35317         0.31677         0.15672
H        -3.10414        -8.32029        -3.04983         0.01063        -0.00567        -0.00391         0.59456        -0.46789        -0.07120         0.15525
H        -1.96397        -6.84035        -4.68553        -0.02993        -0.00696        -0.00006         0.08859         0.35210         0.31853         0.14980
H         2.60533        -5.59938        -5.59893         0.02985        -0.00312        -0.01483         0.45345         0.12301        -0.00854         0.10943
H         3.72543         0.19592        -1.15929        -0.01496         0.00189         0.01081         0.37724         0.39898        -0.12787         0.24331
H         2.39870        -4.35071        -7.64236        -0.02327        -0.01510        -0.00790         0.45268         0.37725        -1.32888         0.12075
H         0.39225        -2.49448        -6.79722         0.00783        -0.01774        -0.02471         1.05823        -0.89849        -0.27532         0.10677
H         0.09258        -4.26317        -7.15160         0.01456        -0.01189         0.00725         0.04476         0.48788         0.29942         0.09605
H        -3.58874        -4.10423        -1.00250        -0.01193        -0.00722         0.00603        -0.19074         0.07760         0.65417         0.27180
H         3.65164        -0.94963         4.76446        -0.00282         0.03887         0.00215         0.02453        -0.69723         0.30595         0.14341
H         0.95835         1.05721        -4.19743        -0.01700         0.00712        -0.00848        -0.28522        -0.80276        -0.38488         0.11567
H         2.36068         1.49299        -6.25728        -0.02685        -0.00527        -0.00520        -0.21099        -1.71129         0.19399         0.09369
H         1.87390        -0.23893        -6.10918        -0.02521        -0.00244        -0.02068        -0.39518         0.43797        -0.30854         0.07893
H         3.57213         0.27248        -5.67877         0.01276         0.03128         0.01233        -0.78285        -0.44135        -1.06171         0.08238
H         2.65008         2.92133        -4.36311         0.00037         0.01527        -0.01105        -0.32369        -0.03809         0.95931         0.09764
H         3.70197        -4.22524        -5.15771         0.00206         0.01475         0.00326        -0.40219        -0.35325        -0.01789         0.13292
H        -2.21013        -5.18507        -6.38671         0.02633        -0.03188        -0.00476        -0.60043        -0.18948         0.27700         0.11854
H        -0.11178         4.79333         0.71534         0.00259         0.04186         0.01684        -0.04988        -0.71590        -0.44780         0.11368
H         5.70463         0.70448         7.51807         0.01203         0.01566         0.01220        -0.52555        -0.02064         0.29135         0.15530
H        -0.73093         4.46484        -1.59498         0.01243        -0.01252        -0.01359         0.56647         0.82589         0.02618         0.08069
H        -2.45093        -4.46018        -2.18065         0.02469         0.00269        -0.00240         0.56349         0.09453        -0.41470         0.28314
H         1.05487         4.74234         5.37993         0.01861        -0.01485         0.01088         0.62132         0.40556        -0.00033         0.14073
H        -1.14765         1.00145         8.27510        -0.01316         0.00182         0.00660         1.32415        -0.15133         0.17702         0.11022
H        -2.55113         0.69050         7.17811         0.03703         0.00328        -0.02783        -0.28456         0.22996        -0.21612         0.13190
H        -1.01492         4.27134         5.98702         0.00606        -0.01635         0.00531        -1.16781         0.54636         0.41801         0.10647
H         1.41869         6.36692        -2.60909         0.00348         0.00667        -0.00296         0.01879        -0.02836         0.80386         0.08708
H         0.06995         0.31940         6.30843         0.00205        -0.00122         0.01665        -0.04194         1.72897        -0.69467         0.14787
H         0.77914         2.31807         0.63804         0.01531        -0.00391        -0.00170         1.06644         0.16094         0.58816         0.28006
H         0.56367         4.08168        -2.80553        -0.00561        -0.04074        -0.02510        -0.71499        -0.57962        -1.06852         0.08265
H         3.24236         3.98996         3.61340         0.01310         0.00891        -0.00637        -0.84729         0.31067         0.62680         0.23881
H         1.19783         6.00346         0.95901        -0.02230         0.01126         0.00477        -0.34469         0.17525        -0.86873         0.10918
H         3.57513         1.37755         4.16896         0.01350        -0.01793         0.00881        -0.80416         0.11483        -0.46928         0.27958
H         0.82781        -1.45373        -4.28594        -0.01360        -0.00019        -0.00831        -0.30287         0.08710         0.39225         0.26140
H         2.45794         2.33034        -2.66412         0.00247         0.00388        -0.00654         0.05560         0.70628        -0.48931         0.07522
H         5.15586         4.76473         4.66478        -0.02275        -0.00310        -0.01663        -0.04045         0.29854        -0.12101         0.15002
H         2.90652         4.28177         1.27285        -0.01299        -0.00741        -0.02398         0.53941         0.03248         0.01324         0.13564
H        -3.44558        -5.67232        -1.58153        -0.01999         0.00080         0.01130         0.14462        -0.07025         0.21884         0.24992
H         5.13822         0.92273         4.52384        -0.01308        -0.00076         0.01155        -1.65010         0.27610        -0.48331         0.24994
H         7.27365         3.44735         4.56980         0.01840        -0.02859        -0.00677         0.03891         1.12753        -0.26868         0.15846
H         7.55178         1.42099         5.99577        -0.01239        -0.01220        -0.01886         0.68838        -0.40915         0.44981         0.15702
H         4.67015         1.16110         2.92577        -0.00758        -0.00100         0.00038         0.18609         0.74807         0.63780         0.27174
H        -0.26607        -4.27154         0.76412        -0.00370         0.00523         0.00599         1.21911        -0.24869         0.66974         0.12328
H        -2.13987         3.19160         8.39446         0.00263         0.01943         0.03863         0.26406        -0.47628         0.23051         0.12204
H        -1.23100        -5.89445        -0.66703        -0.03074         0.01175         0.00223         0.60399        -0.35242        -0.36923         0.14246
H        -1.50020         0.05713        -1.70231        -0.00751        -0.00065        -0.03474         0.67817         1.14405        -0.50133         0.27831
H        -4.07216        -0.63111        -3.01071         0.00552         0.02595        -0.02054        -0.20788        -0.00019         0.10719         0.13801
H        -3.46881         1.79320        -2.73166        -0.00799         0.02339        -0.01019         0.33486         0.43021         0.17095         0.10084
H        -1.92692         1.52157        -3.65689        -0.00447         0.00255         0.01544         0.58618         0.14817         0.13307         0.10615
H        -3.21232         0.84480        -5.66771         0.00053         0.01284        -0.02247        -0.27553        -0.32473        -0.43423         0.09722
H        -5.28596        -0.07155        -4.68286        -0.01382         0.01863        -0.01248        -0.23154        -0.05069        -0.27049         0.05988
H        -5.69083         1.32169        -5.74750         0.01440        -0.04110        -0.02990         0.08751         0.10806         0.74420         0.09461
H        -5.69744         1.53068        -3.94191         0.00046         0.01000        -0.00473        -0.11097        -0.15478         0.34948         0.08157
H         3.45513        -0.58003        -3.28736         0.00914         0.00752         0.00061        -0.19035         0.68026         0.26348         0.13039
H        -2.53640         3.21947        -5.24624         0.00145         0.00503         0.00083        -0.35187         0.12225        -0.33588         0.07735
H         4.88883        -1.21242         3.42923         0.00054        -0.05674         0.01383         0.26219         0.96082         0.10600         0.13277
H        -2.85389         3.03587         6.72753         0.00844         0.00279        -0.00899         0.03819         0.23896        -0.39595         0.10496
H         0.34482         3.02712        -1.34949         0.01180        -0.01625         0.02757        -1.13409        -0.29742        -0.27135         0.06647
H         3.25660         5.35259         6.12899         0.00818         0.01790        -0.01929         0.33720         0.37452         0.84365         0.12811
H         1.99051         7.02653        -1.02165        -0.01583         0.01101        -0.00110         0.38076        -0.00413        -0.24092         0.08078
H        -0.08253         3.96493         7.52943        -0.02287        -0.00995         0.00905         0.23925        -0.13876        -0.62743         0.09725
H         0.22004         6.81728        -1.32506         0.00779        -0.03456         0.02714        -0.21924        -0.29997        -0.23591         0.08304
H         2.52953         4.12353         7.24929         0.00209         0.01026        -0.00341         0.63910         0.72628        -0.08161         0.11969
H        -2.47865        -5.52641         0.61577         0.01991        -0.02242        -0.01005        -0.47944         0.22761        -0.17658         0.13146
H         2.32890         4.56775        -1.10961         0.01278         0.00841         0.01854        -0.40332        -0.60166        -0.70740         0.08877
H         3.57344         1.99246         7.59532        -0.01222         0.00507         0.01627        -0.40373         0.04631        -0.13539         0.15093
176
step: 2  T=      282.859K  Ek=     6.434983  Ep=    -5.320241  E_gap=     9.595969  Err=       0.0073245004217156  time_stamp= 1672953536.0146
 O        -3.71287        -2.14884        -1.13044        -0.00026        -0.00121         0.00071         1.11792         1.80831        -0.82942        -0.46775
 O         0.11102         4.15676         3.09751        -0.00819         0.00064         0.00265        -0.18021         1.12907         2.65412        -0.37578
 O        -1.22505        -0.76372        -4.73734         0.00058         0.00292        -0.00080         0.03920         0.77716        -0.42660        -0.36905
 O         3.85367         2.06903         1.39342        -0.00109         0.00045         0.00537        -1.26794        -1.35368        -2.06195        -0.47060
 O         3.22288        -3.01699        -2.88826        -0.00658        -0.00115         0.00566         2.00904         2.19406         1.21826        -0.37794
 O        -0.90180        -4.15771        -3.29978         0.00611        -0.00542        -0.00003         2.67029         0.09812        -0.74154        -0.47197