4
step: 1  T=      412.365K  Ek=     0.213209  Ep=     1.718182  E_gap=    10.171825  Err=       0.0000000000000000  time_stamp= 1700802124.6655
 O        -0.64654         0.00019         0.00011        -0.00671         0.00120         0.00014         8.49720        -0.05112         0.00102        -0.51823
 C         0.67737         0.00014         0.00002         0.01172         0.00072        -0.00080        -8.99510         0.03371        -0.00739         0.46666
H         1.09372         1.03601        -0.00153        -0.03430        -0.02110         0.00366         0.28934        -1.19410         0.00375         0.02563
H         1.09727        -1.04064        -0.00054         0.00118        -0.00654         0.00360         0.20856         1.21151         0.00261         0.02594
4
step: 2  T=      383.713K  Ek=     0.198395  Ep=     1.733976  E_gap=    10.158217  Err=       0.0000000000000000  time_stamp= 1700802125.1829
 O        -0.64718         0.00031         0.00013        -0.00621         0.00120         0.00014         8.37939        -0.09562        -0.00095        -0.51922
 C         0.67851         0.00021        -0.00006         0.01100         0.00072        -0.00080        -8.92016         0.07868        -0.00184         0.46655
H         1.09030         1.03385        -0.00117        -0.03400        -0.02224         0.00366         0.34109        -1.19632         0.00195         0.02601
H         1.09740        -1.04124        -0.00018         0.00138        -0.00538         0.00361         0.19968         1.21326         0.00084         0.02667
4
step: 3  T=      357.728K  Ek=     0.184960  Ep=     1.748264  E_gap=    10.143894  Err=       0.0000000000000000  time_stamp= 1700802125.6784
 O        -0.64778         0.00043         0.00014        -0.00570         0.00119         0.00014         8.25347        -0.14048        -0.00193        -0.52013
 C         0.67957         0.00028        -0.00014         0.01029         0.00073        -0.00080        -8.82719         0.13910         0.00179         0.46575
H         1.08692         1.03157        -0.00080        -0.03365        -0.02339         0.00366         0.38358        -1.21260         0.00061         0.02664
H         1.09754        -1.04172         0.00018         0.00156        -0.00422         0.00361         0.19014         1.21398        -0.00047         0.02774
4
step: 4  T=      334.476K  Ek=     0.172937  Ep=     1.761139  E_gap=    10.132241  Err=       0.0000000000000000  time_stamp= 1700802126.1372
 O        -0.64832         0.00055         0.00016        -0.00521         0.00118         0.00014         8.13527        -0.18388        -0.00260        -0.52076
 C         0.68056         0.00036        -0.00022         0.00958         0.00075        -0.00080        -8.73852         0.21092         0.00487         0.46441
H         1.08357         1.02917        -0.00044        -0.03326        -0.02457         0.00366         0.42169        -1.24011        -0.00061         0.02742
H         1.09771        -1.04208         0.00054         0.00174        -0.00305         0.00360         0.18156         1.21308        -0.00165         0.02893
4
step: 5  T=      313.931K  Ek=     0.162315  Ep=     1.772553  E_gap=    10.123881  Err=       0.0000000000000000  time_stamp= 1700802126.6010
 O        -0.64882         0.00066         0.00017        -0.00472         0.00117         0.00014         8.03738        -0.22520        -0.00382        -0.52117
 C         0.68149         0.00043        -0.00030         0.00889         0.00077        -0.00080        -8.67367         0.29058         0.00915         0.46316
H         1.08027         1.02665        -0.00007        -0.03284        -0.02577         0.00366         0.46085        -1.27525        -0.00219         0.02812
H         1.09789        -1.04233         0.00090         0.00191        -0.00190         0.00360         0.17544         1.20987        -0.00314         0.02989
4
step: 1  T=      412.365K  Ek=     0.213209  Ep=     1.718182  E_gap=    10.171825  Err=       0.0000000000000000  time_stamp= 1700802320.3362
 O        -0.64654         0.00019         0.00011        -0.00671         0.00120         0.00014         8.49720        -0.05112         0.00102        -0.51823
 C         0.67737         0.00014         0.00002         0.01172         0.00072        -0.00080        -8.99510         0.03371        -0.00739         0.46666
H         1.09372         1.03601        -0.00153        -0.03430        -0.02110         0.00366         0.28934        -1.19410         0.00375         0.02563
H         1.09727        -1.04064        -0.00054         0.00118        -0.00654         0.00360         0.20856         1.21151         0.00261         0.02594
4
step: 2  T=      383.713K  Ek=     0.198395  Ep=     1.733976  E_gap=    10.158217  Err=       0.0000000000000000  time_stamp= 1700802320.7705
 O        -0.64718         0.00031         0.00013        -0.00621         0.00120         0.00014         8.37939        -0.09562        -0.00095        -0.51922
 C         0.67851         0.00021        -0.00006         0.01100         0.00072        -0.00080        -8.92016         0.07868        -0.00184         0.46655
H         1.09030         1.03385        -0.00117        -0.03400        -0.02224         0.00366         0.34109        -1.19632         0.00195         0.02601
H         1.09740        -1.04124        -0.00018         0.00138        -0.00538         0.00361         0.19968         1.21326         0.00084         0.02667
4
step: 3  T=      357.728K  Ek=     0.184960  Ep=     1.748264  E_gap=    10.143894  Err=       0.0000000000000000  time_stamp= 1700802321.2172
 O        -0.64778         0.00043         0.00014        -0.00570         0.00119         0.00014         8.25347        -0.14048        -0.00193        -0.52013
 C         0.67957         0.00028        -0.00014         0.01029         0.00073        -0.00080        -8.82719         0.13910         0.00179         0.46575
H         1.08692         1.03157        -0.00080        -0.03365        -0.02339         0.00366         0.38358        -1.21260         0.00061         0.02664
H         1.09754        -1.04172         0.00018         0.00156        -0.00422         0.00361         0.19014         1.21398        -0.00047         0.02774
4
step: 4  T=      334.476K  Ek=     0.172937  Ep=     1.761139  E_gap=    10.132241  Err=       0.0000000000000000  time_stamp= 1700802321.6900
 O        -0.64832         0.00055         0.00016        -0.00521         0.00118         0.00014         8.13527        -0.18388        -0.00260        -0.52076
 C         0.68056         0.00036        -0.00022         0.00958         0.00075        -0.00080        -8.73852         0.21092         0.00487         0.46441
H         1.08357         1.02917        -0.00044        -0.03326        -0.02457         0.00366         0.42169        -1.24011        -0.00061         0.02742
H         1.09771        -1.04208         0.00054         0.00174        -0.00305         0.00360         0.18156         1.21308        -0.00165         0.02893
4
step: 5  T=      313.931K  Ek=     0.162315  Ep=     1.772553  E_gap=    10.123881  Err=       0.0000000000000000  time_stamp= 1700802322.1673
 O        -0.64882         0.00066         0.00017        -0.00472         0.00117         0.00014         8.03738        -0.22520        -0.00382        -0.52117
 C         0.68149         0.00043        -0.00030         0.00889         0.00077        -0.00080        -8.67367         0.29058         0.00915         0.46316
H         1.08027         1.02665        -0.00007        -0.03284        -0.02577         0.00366         0.46085        -1.27525        -0.00219         0.02812
H         1.09789        -1.04233         0.00090         0.00191        -0.00190         0.00360         0.17544         1.20987        -0.00314         0.02989
4
step: 1  T=      412.365K  Ek=     0.213209  Ep=     1.718182  E_gap=    10.171825  Err=       0.0000000000000000  time_stamp= 1700802360.1708
 O        -0.64654         0.00019         0.00011        -0.00671         0.00120         0.00014         8.49720        -0.05112         0.00102        -0.51823
 C         0.67737         0.00014         0.00002         0.01172         0.00072        -0.00080        -8.99510         0.03371        -0.00739         0.46666
H         1.09372         1.03601        -0.00153        -0.03430        -0.02110         0.00366         0.28934        -1.19410         0.00375         0.02563
H         1.09727        -1.04064        -0.00054         0.00118        -0.00654         0.00360         0.20856         1.21151         0.00261         0.02594
4
step: 2  T=      383.713K  Ek=     0.198395  Ep=     1.733976  E_gap=    10.158217  Err=       0.0000000000000000  time_stamp= 1700802360.5557
 O        -0.64718         0.00031         0.00013        -0.00621         0.00120         0.00014         8.37939        -0.09562        -0.00095        -0.51922
 C         0.67851         0.00021        -0.00006         0.01100         0.00072        -0.00080        -8.92016         0.07868        -0.00184         0.46655
H         1.09030         1.03385        -0.00117        -0.03400        -0.02224         0.00366         0.34109        -1.19632         0.00195         0.02601
H         1.09740        -1.04124        -0.00018         0.00138        -0.00538         0.00361         0.19968         1.21326         0.00084         0.02667
4
step: 3  T=      357.728K  Ek=     0.184960  Ep=     1.748264  E_gap=    10.143894  Err=       0.0000000000000000  time_stamp= 1700802360.9706
 O        -0.64778         0.00043         0.00014        -0.00570         0.00119         0.00014         8.25347        -0.14048        -0.00193        -0.52013
 C         0.67957         0.00028        -0.00014         0.01029         0.00073        -0.00080        -8.82719         0.13910         0.00179         0.46575
H         1.08692         1.03157        -0.00080        -0.03365        -0.02339         0.00366         0.38358        -1.21260         0.00061         0.02664
H         1.09754        -1.04172         0.00018         0.00156        -0.00422         0.00361         0.19014         1.21398        -0.00047         0.02774
4
step: 4  T=      334.476K  Ek=     0.172937  Ep=     1.761139  E_gap=    10.132241  Err=       0.0000000000000000  time_stamp= 1700802361.4092
 O        -0.64832         0.00055         0.00016        -0.00521         0.00118         0.00014         8.13527        -0.18388        -0.00260        -0.52076
 C         0.68056         0.00036        -0.00022         0.00958         0.00075        -0.00080        -8.73852         0.21092         0.00487         0.46441
H         1.08357         1.02917        -0.00044        -0.03326        -0.02457         0.00366         0.42169        -1.24011        -0.00061         0.02742
H         1.09771        -1.04208         0.00054         0.00174        -0.00305         0.00360         0.18156         1.21308        -0.00165         0.02893
4
step: 5  T=      313.931K  Ek=     0.162315  Ep=     1.772553  E_gap=    10.123881  Err=       0.0000000000000000  time_stamp= 1700802361.8554
 O        -0.64882         0.00066         0.00017        -0.00472         0.00117         0.00014         8.03738        -0.22520        -0.00382        -0.52117
 C         0.68149         0.00043        -0.00030         0.00889         0.00077        -0.00080        -8.67367         0.29058         0.00915         0.46316
H         1.08027         1.02665        -0.00007        -0.03284        -0.02577         0.00366         0.46085        -1.27525        -0.00219         0.02812
H         1.09789        -1.04233         0.00090         0.00191        -0.00190         0.00360         0.17544         1.20987        -0.00314         0.02989
