540
step: 1  T=      391.329K  Ek=    27.314903  Ep=   174.860822  E_gap=     3.658489  Err=       0.0000000000000000  time_stamp= 1669870176.7385
 C        -0.00017        -0.00041       -11.12189         0.00006        -0.00136         0.00107         3.00268        -2.07166        -1.08811        -0.02747
 C       -10.39595         1.53546        -1.94146        -0.01185         0.00195         0.00285        -0.93338        -0.10089        -1.42231         0.01644
 C        -9.84164         2.82138        -1.99943         0.00009         0.00467        -0.00113        -0.13539         0.47964        -0.50276         0.00316
 C        -9.34936         3.33187        -3.21123        -0.00205         0.00241         0.00728        -0.45654         0.19014         0.48943         0.00114
 C        -9.40530         2.56064        -4.37799        -0.00970        -0.00096         0.00673        -1.06886        -0.39530        -0.52022         0.01811
 C        -9.83709         0.31942        -5.16393         0.00806        -0.00627        -0.00097         0.53087         0.16216        -3.58759        -0.02724
 C       -10.14348        -0.84629        -4.47683        -0.00709        -0.00867         0.00344        -0.14095        -3.33359        -1.82964        -0.02625
 C       -10.62592        -0.49466        -3.23027        -0.00172        -0.00546        -0.00154        -1.79976        -2.16132         2.47611        -0.02722
 C       -10.61836         0.88922        -3.14632         0.01674         0.00020        -0.00711        -1.92951         1.96634         3.01592        -0.02726
 C       -10.13674         1.39153        -4.33991         0.00737        -0.00181        -0.00375        -0.27056         3.61098        -1.11472        -0.02678
 C        -7.71978         6.44097         0.38552        -0.00700        -0.00094        -0.00076         0.05898         0.38679         0.56443         0.00330
 C        -8.53930         5.30262         0.38574        -0.00284        -0.00077         0.00078        -0.34734        -0.09068         0.62301         0.00167
 C        -8.88944         4.68122         1.59488        -0.00336        -0.00008         0.00687        -0.08157         0.56802        -0.75897         0.00099
 C        -9.41301         3.37848         1.61880        -0.00960         0.00331        -0.00323        -0.38734        -0.22560        -0.45855         0.00041
 C        -9.41510         2.62455         2.80514         0.00619         0.00621         0.00137        -0.51058        -0.95081        -0.03573         0.00064
 C        -9.58508         1.22968         2.78321         0.00076        -0.00258         0.00113        -0.09732         0.80074         0.18645         0.00170
 C        -9.25464         0.45712         3.90917        -0.00099        -0.00462         0.00357        -0.05188         0.59755         0.46503         0.00270
 C        -8.75488         1.07030         5.06704        -0.00539         0.00511         0.00150        -0.46612        -0.37345        -0.34114        -0.00026
 C        -8.10493         0.32273         6.06793        -0.00143        -0.00540         0.00328        -0.36987        -0.69355        -0.11390         0.00015
 C        -7.29599         0.94605         7.03053        -0.00054        -0.00375        -0.00483         0.23423        -0.22183         0.69202         0.00029
 C        -6.37387         0.21850         7.79207        -0.00744        -0.00494        -0.00684        -0.17736         0.53867         0.16319         0.00288
 C        -5.34784         0.88052         8.49673         0.00022         0.00031         0.00483        -0.42219         0.63890        -0.05296         0.00205
 C        -5.23995         2.27856         8.44203        -0.00332         0.00382         0.00265        -0.15566        -0.75505         0.32449         0.00078
 C        -4.05969         2.93913         8.83208         0.00101         0.00949         0.00218         0.28975        -0.69566         0.62073         0.00093
 C        -3.80473         4.25915         8.43934         0.00209        -0.00554        -0.00679         0.51346         0.64039         0.27445         0.00067
 C        -2.51597         4.80165         8.49653        -0.00475        -0.00566         0.00006        -0.46098         0.13458         0.07588         0.00259
 C        -2.20715         5.98406         7.79680         0.00541         0.00384         0.00148        -0.74756         0.12100        -0.00004         0.00241
 C        -3.18783         6.63008         7.03676         0.00758        -0.00463         0.00631         0.03227         0.08564         0.33359        -0.00070
 C        -2.85190         7.59969         6.06802         0.00643         0.00909        -0.00209         0.43463         0.19271         0.33641        -0.00048
 C        -3.76610         7.98296         5.07077        -0.00489         0.00997         0.00454         0.12796         0.63613        -0.57948        -0.00006
 C       -10.37154         0.75531        -0.78807         0.00591         0.00518        -0.01303        -0.42283        -0.83179         0.77542         0.00315
 C       -10.37915        -0.64761        -0.87037        -0.01079         0.00944         0.00059        -0.23317         0.38110         0.41192         0.00092
 C       -10.39251        -1.28161        -2.12003        -0.00071         0.00260        -0.00348        -1.08573         0.38423        -0.69206         0.01774
 C        -9.84413        -2.55082        -2.33453        -0.00182        -0.00001        -0.00072        -0.01357        -0.59907        -0.62194         0.00178
 C        -7.07663         1.67231        -7.11914         0.00813         0.00611         0.00497        -0.03192         0.55752        -0.31050         0.00074
 C        -6.59862         0.47781        -7.68699        -0.00962        -0.00165        -0.00364         0.60579         0.23894        -0.73885         0.00108
 C        -7.08066        -0.77204        -7.27297         0.00006         0.00419         0.00166         0.07027        -0.88838        -0.35488         0.00098
 C        -6.37665        -1.95530        -7.54373         0.00045         0.00175        -0.00552        -0.44283         0.40943        -0.00105         0.00182
 C        -6.67967        -3.13545        -6.84279         0.00200         0.00322         0.00582        -0.57529         0.04570         0.01014         0.00212
 C        -7.69247        -3.15263        -5.87866        -0.00305        -0.00866        -0.01241         0.06198         0.10902        -0.41318         0.00033
 C        -7.79287        -4.19167        -4.93307         0.00632        -0.00450         0.00628        -0.01758        -0.38364        -0.32846         0.00106
 C        -8.54970        -4.03812        -3.75936        -0.00075         0.00310         0.00081        -0.29539        -0.50905         0.57209        -0.00082
 C        -8.37870        -4.89655        -2.66275        -0.00278         0.00015         0.00284        -0.26884         0.28164        -0.61700         0.00192
 C        -8.86982        -4.53889        -1.39583        -0.00037         0.00488         0.00510        -0.41919         0.23868        -0.25932         0.00323
 C        -9.53835        -3.32657        -1.21331         0.00332        -0.00691        -0.00189        -0.14448        -0.35504        -0.12820         0.00138
 C        -9.74075        -2.78594         0.07012         0.00079        -0.00421         0.00307        -0.14614        -0.30415         0.48787         0.00081
 C       -10.06922        -1.42954         0.25040        -0.00030         0.00118         0.00942        -0.33992         0.39013         0.21997         0.00022
 C        -9.91586        -0.79406         1.48850         0.00085         0.00461         0.00243        -0.34406        -0.31134        -0.52678         0.00169
 C        -3.34300         8.65005         3.90724         0.00267         0.00899        -0.00639        -0.45182        -0.26410         0.95937         0.00228
 C        -9.91370         0.60624         1.57446         0.00342         0.00260        -0.00163        -0.32452         0.30700        -0.39213         0.00319
 C        -9.73670         2.75627         0.41477         0.00157         0.00826         0.00078        -0.24300         0.03016         0.66763         0.00132
 C        -9.53543         3.44681        -0.79040         0.00310        -0.00055        -0.00014        -0.07940         0.62524        -0.08453         0.00001
 C        -8.86933         4.67340        -0.81951        -0.00666        -0.01032         0.00754        -0.26729        -0.04081        -0.28339         0.00264
 C        -8.37604         5.18451        -2.03523        -0.00260        -0.00748        -0.00133        -0.15922         0.15267        -0.11071         0.00116
 C        -8.54702         4.47744        -3.22573         0.00109         0.00975         0.00680        -0.35314         0.15861         0.32341         0.00133
 C        -7.79252         4.77074        -4.37411         0.00481         0.00339         0.00704         0.20618         0.68831        -0.24948         0.00070
 C        -7.68998         3.85606        -5.43589         0.00080         0.00558         0.00393         0.30087        -0.06729        -0.85056        -0.00012
 C        -8.49037         2.70841        -5.42968        -0.00470        -0.00163         0.00079         0.19336        -0.12682        -0.82600         0.00074
 C        -8.18330         1.62194        -6.27295         0.00222         0.00291        -0.00932        -0.46901         0.74305         0.31005         0.00192
 C        -8.79334         0.37485        -6.06180        -0.00457        -0.00738         0.00434        -1.18721         0.24272        -0.14533         0.01656
 C        -8.18531        -0.83159        -6.42238        -0.00052        -0.00297        -0.00088        -0.27822        -0.91404         0.01575         0.00128
 C        -8.49268        -2.01508        -5.72183        -0.00707        -0.00192         0.00623         0.42690         0.27397        -1.18338         0.00217
 C        -9.40508        -1.99830        -4.67005        -0.00528        -0.00120        -0.01253        -1.52001         0.50211         0.07875         0.01711
 C        -9.35442        -2.90623        -3.60490        -0.01063         0.00210        -0.00333        -0.40985        -0.33263         0.65093         0.00237
 C       -10.06619         1.38598         0.42354         0.00192        -0.00360         0.00403        -0.24037        -0.15759         0.31995        -0.00035
 C        -4.18079         8.71873         2.78673         0.00022         0.00287         0.00542        -0.64321        -0.02123        -0.00014         0.00352
 C        -5.44684         8.12005         2.80591         0.00514        -0.00223         0.00143         0.32863         0.51877         0.00470         0.00042
 C        -6.16378         7.87351         1.62088        -0.00019        -0.00524         0.00001         0.38443         0.74466        -0.72336         0.00054
 C        -0.41450       -10.05141        -1.19139         0.00237         0.00139         0.00253         0.43467        -0.34346         0.53064         0.00065
 C        -1.80272        -9.95872        -0.99983         0.00448         0.00573         0.00796        -0.49170        -0.25198         0.27235         0.00043
 C        -2.35936        -9.77551         0.27040        -0.00261        -0.00833        -0.00080         0.25302        -0.26553        -0.35877         0.00291
 C        -3.68603        -9.34607         0.41163         0.00710         0.00363        -0.00218        -0.51530        -0.15357        -0.49290         0.00252
 C        -4.48005        -9.10184        -0.71668         0.00255         0.00822         0.00364         0.38458        -0.51167         0.35046         0.00014
 C        -5.67303        -8.36529        -0.63211         0.00474         0.01063         0.00128        -0.40021        -0.13040         0.59607         0.00052
 C        -6.27058        -7.81148        -1.77593         0.00046         0.00532         0.00242        -0.61910         0.21489        -0.21126         0.00014
 C        -7.22743        -6.79452        -1.68328         0.00283         0.00060        -0.00663         0.09034        -0.47411        -0.08053         0.00164
 C        -7.55901        -6.02225        -2.81013        -0.00239        -0.00068        -0.01158         0.05923        -0.26503        -0.32965         0.00203
 C        -6.93111        -6.25732        -4.03976         0.00639         0.00311        -0.00377        -0.59933        -0.17873         0.61985         0.00070
 C        -6.98085        -5.31124        -5.07429        -0.00864         0.00462         0.00571        -0.34053         0.28033        -0.30282         0.00097
 C        -6.07695        -5.36590        -6.15194        -0.00479         0.00477         0.00022         0.03347         0.20404        -0.65093         0.00001
 C        -5.23859        -6.47637        -6.28193         0.00127         0.00294         0.00579         0.34156         0.10883        -0.89253         0.00143
 C        -4.10954        -6.42240        -7.12518         0.00197         0.00754        -0.00365        -0.97412        -0.16905         0.22757         0.00191
 C         0.15975        -9.87410        -2.46299        -0.00004        -0.00409        -0.00428         0.71149        -0.19517        -0.00513         0.00150
 C        -3.12085        -7.41150        -7.04138        -0.00019        -0.00276        -0.00190        -0.46357        -1.31981        -0.09541         0.01739
 C        -0.75210        -7.91676        -6.75938         0.00580        -0.00715         0.00729        -0.42087         0.53484        -1.01190         0.00213
 C        -1.05519        -8.90105        -5.82012         0.00382        -0.00035        -0.00380        -1.18868        -1.21777        -0.21185         0.01684
 C        -0.17703        -9.26694        -4.79500        -0.00027        -0.00035        -0.00101         0.14051        -0.70276         0.68635         0.00155
 C        -0.66917        -9.78159        -3.57765         0.00205        -0.00682         0.00503         0.54833        -0.01825        -1.01569         0.00188
 C        -2.04665        -9.92741        -3.38726        -0.00030         0.00088        -0.01485        -0.73336        -0.77911        -0.51388         0.01789
 C        -2.63785        -9.86591        -2.11676         0.00739         0.00850        -0.00053        -0.92030        -0.17183         0.26799         0.00067
 C        -3.97629        -9.44298        -1.97564        -0.00437        -0.00177        -0.00339         0.83620        -0.62720         0.40125         0.00166
 C        -4.72304        -9.07077        -3.09518        -0.00273        -0.00015         0.00336        -0.12131        -0.95875        -1.23141         0.01718
 C        -5.77068        -8.14504        -3.03734        -0.00278         0.00212        -0.00188        -0.60809         0.23175        -0.43629         0.00203
 C        -6.09877        -7.37016        -4.16414         0.00325         0.00158         0.00000        -0.32644        -0.55456         0.67613         0.00239
 C        -5.38486        -7.51764        -5.35584         0.00094        -0.00659         0.00436         0.20333        -1.23523        -0.72661         0.01740
 C        -3.39295        -8.52959        -6.27430         0.00916        -0.00329        -0.00037        -0.36167         1.40610        -3.65443        -0.02688
 C        -2.38640        -9.25828        -5.67598        -0.00355         0.00235        -0.00152         3.57588        -1.19864        -1.63207        -0.02659
 C        -2.87047        -9.76098        -4.47907        -0.00132         0.00368         0.00312         1.59414        -2.70792         1.93044        -0.02667
 C        -1.78286        -7.17142        -7.37042         0.00065        -0.00086         0.00383         0.82578        -0.60378        -0.07799         0.00184
 C        -6.37550         2.87883        -7.23913         0.00165         0.00645         0.00140        -0.38864        -0.55303        -0.22190         0.00334
 C         1.52500        -9.59796        -2.61170        -0.00224        -0.00046         0.00109        -0.45549        -0.33391        -0.06696         0.00272
 C         1.15150        -8.84762        -4.89895         0.00503        -0.00557        -0.00241         0.22909        -0.45773         0.38799         0.00030
 C        -7.23497         6.96946         1.59262         0.00576        -0.00207         0.00090        -0.63703        -0.13222        -0.70759         0.00028
 C        -7.71379         6.44416         2.79070         0.00246         0.00326        -0.00559        -0.78830        -0.45154        -0.02007         0.00153
 C        -8.53653         5.30060         2.79062         0.00417        -0.00278        -0.00449         0.11475         1.00927         0.00876         0.00093
 C        -8.77926         4.61048         3.98404         0.00049         0.01677         0.00961        -0.62726         0.26140         0.81397         0.01759
 C        -9.06783         3.23508         4.00531         0.00207        -0.00171        -0.00821        -0.14611        -0.17181         0.91698         0.00101
 C        -8.73605         2.46364         5.13659         0.00303         0.00449         0.00013        -0.73218         0.13284        -0.78670         0.00195
 C        -8.11562         3.04949         6.24173         0.00070         0.00096        -0.00466        -0.58563         1.21044         0.74021         0.01742
 C        -7.27918         2.33780         7.10872        -0.00786        -0.00721        -0.00113         0.64613         0.41677         0.89598         0.00237
 C        -6.24716         3.00491         7.81002         0.00974         0.00496        -0.00296        -1.13505        -0.87743        -0.11223         0.00175
 C        -6.05985         4.37698         7.65028        -0.00161        -0.00458         0.00353        -1.18541         1.27600         0.04273         0.01698
 C        -4.81188         4.99289         7.81165         0.00378        -0.00178        -0.00076         0.04564         0.80725        -0.01410         0.00238
 C        -4.51132         6.17395         7.11035        -0.00975        -0.00248         0.00061         0.49416        -0.31211         0.82096         0.00259
 C        -5.44015         6.75011         6.24309         0.00955        -0.00107        -0.00431        -1.83190         0.13212         0.61968         0.01728
 C        -5.08426         7.52626         5.13985        -0.00525         0.00042         0.00387        -0.20274         0.66081        -0.77602         0.00252
 C         2.01446        -9.08895        -3.82456        -0.00729        -0.00532        -0.00160        -0.08310        -0.09000        -0.42028         0.00230
 C        -5.91969         7.59467         4.00683         0.00246        -0.00562        -0.00755         0.48095         0.43020         0.85333         0.00200
 C        -8.36408         5.18970         5.16284         0.00429        -0.00438         0.00188        -3.21871        -0.42370        -2.13487        -0.02668
 C        -8.04267         4.42840         6.27245        -0.00443        -0.00341         0.00234        -1.85134        -2.77404         1.52346        -0.02714
 C        -7.03127         5.08621         6.95987        -0.00017         0.01273         0.00215         1.09780        -1.22819         3.63070        -0.02750
 C        -6.73300         6.24625         6.27147        -0.00485         0.00317        -0.00212         2.36589         3.01321         1.33385        -0.02740
 C        -7.55935         6.31366         5.16154        -0.00902        -0.00056        -0.00223        -0.28067         3.24815        -2.10346        -0.02655
 C        -5.86379        -4.26239        -6.98882        -0.00782        -0.00098        -0.00639        -0.03886        -0.60910         0.17881         0.00208
 C        -4.73298        -4.20616        -7.82214         0.00521         0.01012         0.00468         0.03882        -0.89027         0.00484         0.00309
 C        -3.81020        -5.26172        -7.83804         0.00073         0.00497        -0.00345        -0.61028         0.29350        -0.15087         0.00046
 C        -2.52632        -5.10565        -8.38547         0.00137         0.00525         0.00108         0.28478         0.24056        -0.58252         0.00045
 C        -1.48646        -6.01114        -8.08458         0.00961        -0.01049        -0.00146         0.36348         0.22876        -0.38542        -0.00012
 C        -0.14595        -5.67418        -8.31035         0.00132         0.01395         0.00607        -0.50520        -0.62984         0.02281         0.00280
 C         0.88169        -6.41827        -7.70221         0.00467         0.00509         0.00456        -0.43946        -0.66568         0.13109         0.00214
 C         0.57574        -7.49883        -6.86144         0.00450        -0.00445        -0.00383         0.10369         0.35516        -0.63865         0.00033
 C         1.53276        -8.03542        -5.98165         0.00907         0.00069        -0.00041         0.48622        -0.04290        -0.26684         0.00063
 C        -7.12538         6.88949         3.98233         0.00591        -0.00515         0.00415        -1.08599         0.16305         0.94414         0.01678
 C        -4.18366        -9.34241        -4.33918        -0.00511         0.00008         0.00348        -2.43139        -1.40620         2.57224        -0.02746
 C        -6.67460         3.96220        -6.40626         0.01273         0.00081        -0.00861        -1.05626         0.06656         0.66300         0.00188
 C        -7.02315        -5.89918         6.26949         0.00298        -0.00566         0.00332         0.77941         0.50107         3.31372        -0.02667
 C         3.12338        -8.22336         6.06128         0.00139         0.00166        -0.00087         0.32660        -1.63502        -0.10600         0.01737
 C         1.78587        -8.02310         6.41969         0.00084        -0.00146         0.00621        -0.76437        -0.55024        -0.07620         0.00243
 C         0.75968        -8.68122         5.71662         0.00539        -0.00119        -0.00021         0.08156         0.12176         0.71580         0.00170
 C         1.05852        -9.55003         4.65588        -0.00119        -0.01369        -0.00753         1.07845        -0.81508         0.69262         0.01743
 C         2.87317       -10.24001         3.22617         0.00438         0.00214        -0.00265        -2.03286        -2.50167        -2.47046        -0.02809
 C         4.18114        -9.80706         3.14283        -0.00626         0.00355         0.00180         2.74498        -1.03485        -2.79749        -0.02643
 C         4.51091        -9.19133         4.33856         0.00617        -0.00566         0.00394         3.45548         1.00154         1.22629        -0.02733
 C         3.39588        -9.23744         5.16091        -0.00398         0.00060        -0.00107         0.14350         0.79382         3.74795        -0.02781
 C         2.38606        -9.88664         4.47393        -0.00021         0.00082        -0.00129        -3.29088        -1.37811         1.47634        -0.02740
 C        -4.32849         0.14191         9.10029        -0.00730        -0.00122        -0.00460         0.67977         0.16324         0.61639         0.00270
 C        -4.32545        -1.25977         9.00790        -0.00433        -0.00272        -0.00727         0.46885        -0.17393         0.49329         0.00201
 C        -3.22065        -1.99715         9.45628        -0.00680         0.00027         0.00403        -0.48739         0.34935         0.14413         0.00076
 C        -3.03344        -3.33733         9.07734        -0.00384        -0.00030         0.00408        -0.41217        -0.54948        -0.10952        -0.00008
 C        -1.77793        -3.96750         9.19904         0.00635        -0.00979        -0.00191        -0.14213        -0.50273         0.01998         0.00077
 C        -1.48429        -5.14758         8.50607        -0.00404        -0.00401        -0.00581         0.08929         0.40156         0.61634         0.00236
 C        -0.15389        -5.57349         8.36820        -0.00223        -0.00032         0.00033         0.47843         0.18908         0.41496         0.00243
 C         0.89495        -4.82213         8.91827        -0.00121         0.00139         0.00226        -0.60612        -0.60812        -0.01311         0.00007
 C         2.22775        -5.02277         8.52411         0.00109         0.00641         0.01328         0.19858        -1.13437        -0.49513         0.00087
 C         3.21306        -4.05946         8.77202        -0.00974         0.00431         0.00123         1.08870         0.07259        -0.08879        -0.00040
 C         4.43460        -4.06834         8.07449        -0.00283        -0.00054        -0.01068        -0.47508         0.23883         0.73681         0.00227
 C         5.25878        -2.92696         8.07735         0.00169         0.00861        -0.00605        -0.28620         0.17255         0.54137         0.00147
 C         4.86888        -1.77255         8.77269        -0.00265         0.00737        -0.00294         0.42368        -0.85662        -0.15161         0.00124
 C         5.47485        -0.53270         8.52503        -0.00132         0.00097         0.00560         1.05106         0.11361        -0.41046         0.00012
 C         4.86589         0.66975         8.91960         0.00059         0.00437        -0.00672         0.14989         0.61283         0.19584         0.00062
 C         5.24782         1.90204         8.37318        -0.00448         0.00579        -0.00332         0.05092        -0.72573         0.48257         0.00360
 C         4.42752         3.02251         8.51106         0.00450        -0.01364        -0.00944        -0.75313         0.65531         0.54511         0.00220
 C         3.20843         2.94075         9.20369         0.00046         0.00331        -0.00123         0.89723        -0.14458        -0.05744         0.00008
 C         2.22083         3.93106         9.07935         0.00306         0.00249         0.00029         0.10001         0.71400        -0.09296         0.00121
 C         0.88859         3.68592         9.45720         0.00015         0.00175         0.00146        -0.61808         0.62229         0.02644         0.00002
 C         4.11385        -7.26683         6.27134         0.00059        -0.01902         0.00490         1.12320         0.57142         0.06754         0.00185
 C         5.24365        -7.20883         5.42951         0.00286         0.00102        -0.00217        -0.40996        -0.09925         0.92505         0.00218
 C         5.38909        -8.12437         4.38413         0.00426        -0.00577         0.00992        -0.03670        -1.44311         0.08191         0.01617
 C         6.10315        -7.82959         3.21087         0.00293         0.00553        -0.00616         0.02228        -0.69776        -0.27826         0.00266
 C        -0.15897       -10.09485         1.20752        -0.00542         0.00347         0.00021        -0.54185        -0.24544         0.41631        -0.00047
 C         0.41530       -10.12264        -0.07240        -0.00726        -0.00334         0.00359        -0.16537        -0.25188        -0.65031         0.00090
 C         1.80873       -10.01488        -0.24616         0.00312        -0.01113         0.00938         0.27592        -0.02548        -1.01482        -0.00016
 C         2.36150        -9.66668        -1.49153         0.00111         0.00290        -0.00061        -0.11565        -0.46405         0.70515         0.00210
 C         3.69422        -9.23097        -1.57836         0.00729        -0.00780        -0.00265         0.29595        -0.19409         0.57237         0.00200
 C         4.48462        -9.12555        -0.42165         0.00479         0.00268         0.00679        -0.52230        -0.47899        -0.80535         0.00085
 C         5.67491        -8.38482        -0.41305        -0.00297         0.00160         0.00578         0.59313         0.07833        -0.87705         0.00072
 C         6.27531        -7.97828         0.78678         0.00731        -0.00510        -0.00634         0.55478         0.24343         0.62505         0.00010
 C         7.22746        -6.94998         0.82444        -0.00710         0.00863         0.00495        -0.18860        -0.71736         0.00233         0.00128
 C         7.56182        -6.32431         2.03446         0.00505         0.00358        -0.00035        -0.25629        -0.46281         0.69681         0.00255
 C         6.93325        -6.71551         3.22976        -0.00572        -0.00693         0.00260         0.89620         0.37678        -0.64073         0.00042
 C         6.98380        -5.90319         4.37893         0.00918         0.00334         0.00377         0.58330         0.33506        -0.02035         0.00102
 C         6.07925        -6.09132         5.43501         0.00136         0.00175        -0.00920        -0.03232         0.35279         0.90072        -0.00006
 C         5.86349        -5.09825         6.40462        -0.00172         0.00022         0.00068         0.25179        -0.71388        -0.35659         0.00308