4
step: 10
 O 0.064026 0.018371 0.029501
 C 1.234831 -0.031943 -0.035711
H 1.933259 0.889750 -0.094358
H 2.006450 -0.800695 0.051628
4
step: 20
 O 0.045433 0.012794 0.053461
 C 1.290698 -0.008945 -0.045815
H 1.875738 0.939146 -0.343409
H 1.693354 -1.035617 0.040748
4
step: 10
 O 0.022837 0.031226 0.080785
 C 1.284500 -0.055011 -0.078564
H 1.928126 0.823910 -0.471002
H 1.883488 -0.983126 0.088258
4
step: 20
 O 0.069851 0.040689 0.109420
 C 1.206046 -0.099835 -0.097123
H 1.833789 0.722621 -0.619409
H 1.832924 -0.924593 0.338578
4
step: 10
 O 0.062105 -0.011480 0.003696
 C 1.248335 0.008619 -0.002584
H 1.857513 0.936737 0.019167
H 1.951760 -0.857198 -0.047035
4
step: 20
 O 0.057257 -0.027899 0.008129
 C 1.241250 0.023771 -0.007449
H 1.928560 0.902368 0.049412
H 2.042108 -0.742768 -0.089673
4
step: 10
 O 0.075975 -0.027274 -0.021696
 C 1.220833 0.020221 0.021174
H 1.890476 0.938879 -0.056761
H 2.026350 -0.746892 0.148851
4
step: 10
 O 0.064053 -0.006052 0.046088
 C 1.236718 0.005073 -0.033702
H 1.959145 0.863097 -0.067887
H 1.957648 -0.827463 -0.262083
4
step: 20
 O 0.051119 -0.012654 0.098310
 C 1.283268 0.015122 -0.113140
H 1.781879 0.992325 0.126491
H 1.785489 -0.971648 -0.338782
4
step: 30
 O 0.035482 -0.023866 0.146750
 C 1.284599 0.024108 -0.142576
H 1.940745 0.928462 -0.012353
H 1.858988 -0.836901 -0.618084
4
step: 40
 O 0.106299 -0.029661 0.171107
 C 1.207226 0.028408 -0.162849
H 1.887613 0.909295 0.019665
H 1.710024 -0.776980 -0.795166
4
step: 50
 O 0.059450 -0.042956 0.241883
 C 1.276470 0.047380 -0.256194
H 1.877197 0.911467 0.128749
H 1.638937 -0.794189 -0.915359
4
step: 60
 O 0.118091 -0.051112 0.259009
 C 1.188947 0.049819 -0.249063
H 2.004252 0.777289 -0.062086
H 1.624026 -0.559623 -1.081354
4
step: 70
 O 0.134243 -0.060943 0.295592
 C 1.207490 0.058658 -0.302613
H 1.868353 0.845786 0.109207
H 1.282537 -0.577382 -1.195232
4
step: 80
 O 0.124675 -0.080292 0.363357
 C 1.184630 0.083510 -0.366876
H 2.092149 0.666254 -0.099498
H 1.483062 -0.386855 -1.296409
4
step: 90
 O 0.211175 -0.080852 0.343850
 C 1.117011 0.078075 -0.347346
H 1.966849 0.694607 0.032280
H 1.041062 -0.341562 -1.351268
4
step: 100
 O 0.177087 -0.105959 0.427454
 C 1.146358 0.100827 -0.428973
H 2.102084 0.638078 -0.192595
H 1.097218 -0.157613 -1.480789
4
step: 10
 O 0.070814 0.006171 -0.017250
 C 1.227815 -0.011984 0.021367
H 1.952471 0.867571 0.114698
H 1.963083 -0.822714 -0.095485
4
step: 20
 O 0.033609 0.005662 -0.031929
 C 1.303536 -0.006874 0.026816
H 1.828249 0.963914 0.356207
H 1.775546 -0.971872 -0.168923
4
step: 30
 O 0.029313 0.012402 -0.052472
 C 1.291926 -0.015161 0.051316
H 1.920342 0.863939 0.458587
H 1.889996 -0.880123 -0.237158
4
step: 40
 O 0.078449 0.019538 -0.063584
 C 1.231395 -0.027572 0.064592
H 1.849967 0.808224 0.574495
H 1.901727 -0.789796 -0.334883
4
step: 50
 O 0.016708 0.023549 -0.086880
 C 1.326847 -0.021541 0.082223
H 1.764024 0.752561 0.797719
H 1.830259 -0.869668 -0.398419
4
step: 60
 O 0.072519 0.029217 -0.100435
 C 1.229749 -0.028399 0.101369
H 1.884138 0.551943 0.789042
H 1.981304 -0.677297 -0.402729
4
step: 70
 O 0.059917 0.039868 -0.115580
 C 1.280836 -0.043656 0.122285
H 1.605466 0.581751 0.965192
H 1.851234 -0.694352 -0.587723
4
step: 80
 O 0.028001 0.047553 -0.136437
 C 1.286694 -0.041256 0.131261
H 1.792654 0.326197 1.020234
H 2.100854 -0.589399 -0.418638
4
step: 90
 O 0.107479 0.048133 -0.139400
 C 1.216745 -0.049307 0.148594
H 1.572028 0.312360 1.104354
H 1.893423 -0.488826 -0.662282
4
step: 100
 O 0.029845 0.064174 -0.168930
 C 1.292844 -0.066314 0.171453
H 1.660415 0.169128 1.167876
H 2.130543 -0.397563 -0.529456
