4
step: 10
 O 0.019640 -0.000168 0.053977
 C 1.293757 0.002654 -0.059344
H 1.911179 0.928789 -0.351640
H 1.922564 -0.918240 0.048536
4
step: 20
 O 0.060288 -0.004084 0.063880
 C 1.202784 0.017119 -0.083895
H 1.822714 0.923430 -0.436391
H 1.843090 -0.845905 0.210901
