36
step: 1  T=      413.178K  Ek=     1.922664  Ep=     4.273019  E_gap=     7.086504  Err=       0.0000000000000000  time_stamp= 1669584964.0481
 C        -0.00081        -0.00032        -3.74782        -0.00203        -0.00081         0.00072         0.02076         0.00319        -0.02858        -0.11445
 C        -0.00293         1.34972         3.49804        -0.00731         0.00203         0.00269         0.03305        -0.07865        -0.05684        -0.11357
 C         0.00142         0.00187         3.74743         0.00356         0.00472        -0.00176        -0.02151         0.21003        -0.42163        -0.11216
 C         0.00096         1.85289         2.16743         0.00240         0.00232         0.00656        -0.02917        -0.48241        -0.61147        -0.03044
 C        -0.00164         3.24561         1.87663        -0.00408        -0.00096         0.00631         0.08255        -0.56663        -0.92402        -0.11152
 C         0.00534         3.70027         0.58016         0.01333        -0.00671        -0.00030        -0.11466        -0.65385         0.27334        -0.11260
 C        -0.00145         2.79756        -0.52002        -0.00361        -0.00794         0.00355         0.06134        -0.35076         0.01418        -0.02916
 C         0.00027         2.35208        -2.91783         0.00069        -0.00482        -0.00281        -0.01040         0.12641         0.67193        -0.11330
 C         0.00595        -3.24609        -1.87761         0.01485        -0.00030        -0.00879        -0.07207         0.23693         0.62447        -0.11225
 C         0.00196        -3.70409        -0.58198         0.00489        -0.00278        -0.00424        -0.06652         1.06346        -0.30754        -0.11110
 C        -0.00334        -2.80111         0.52078        -0.00834        -0.00092        -0.00167         0.05055         0.52767        -0.05946        -0.03016
 C        -0.00144        -3.24623         1.87403        -0.00361        -0.00063        -0.00005         0.03446         0.42242         0.08369        -0.11289
 C         0.00004         3.24582        -1.87135         0.00010        -0.00045         0.00672        -0.05849        -0.67554        -0.18081        -0.11297
 C        -0.00314        -0.94736         2.68465        -0.00784         0.00357        -0.00398         0.05889         0.27812        -0.50602        -0.02975
 C         0.00380         0.93064         1.08503         0.00948         0.00679         0.00094        -0.04957         0.19419         0.51536        -0.01215
 C         0.00099        -0.47657         1.34619         0.00248        -0.00294         0.00063        -0.02038         0.02038         0.39954        -0.01193
 C        -0.00036        -1.40535         0.26243        -0.00090        -0.00510         0.00288        -0.02966        -0.42714        -0.08999        -0.01175
 C        -0.00111         1.40553        -0.26086        -0.00276         0.00551         0.00103         0.04703         0.24333        -0.05487        -0.01083
 C        -0.00133        -1.35101        -3.49585        -0.00332        -0.00514         0.00286         0.03449         0.86330         0.43240        -0.11199
 C        -0.00092        -1.85344        -2.16710        -0.00230        -0.00369        -0.00574         0.02483         0.46155         0.62433        -0.02935
 C        -0.00308        -0.93009        -1.08784        -0.00770        -0.00542        -0.00790         0.04641        -0.27771        -0.19188        -0.01183
 C         0.00059         0.47542        -1.34429         0.00147         0.00009         0.00409        -0.05523         0.13087        -0.62815        -0.01186
 C        -0.00099         0.95041        -2.68539        -0.00247         0.00403         0.00212         0.01643        -0.44515         0.51994        -0.02993
 C         0.00070        -2.35006         2.91715         0.00175         0.00988         0.00108        -0.01432         0.01312        -0.84960        -0.11267
H         0.00527         3.94282         2.69146         0.01314        -0.01754        -0.02396        -0.01822         0.65817         0.82561         0.13223
H        -0.00423         4.76351         0.37789        -0.01052        -0.01705        -0.00223         0.03013         0.65816        -0.15708         0.13289
H         0.00931        -0.35893         4.77369         0.02326         0.01362         0.00522        -0.01117        -0.22036         0.42089         0.13330
H         0.00985        -4.32145         2.07838         0.02460        -0.01682         0.02028        -0.01999        -0.22020        -0.01833         0.13432
H         0.00910        -2.70017         3.93889         0.02274         0.03245        -0.00722        -0.00546        -0.25319         0.71518         0.13279
H        -0.00489         2.07219         4.32734        -0.01223         0.03680         0.01594         0.00032         0.01891         0.03485         0.13460
H         0.00767         0.37317        -4.79171         0.01913         0.02141        -0.04892        -0.01841        -0.07360         0.26991         0.13520
H        -0.01735        -4.75729        -0.37846        -0.04331         0.03191         0.00089         0.03088        -1.01436         0.20351         0.13230
H        -0.00283        -3.94635        -2.70715        -0.00703         0.00928        -0.01449         0.02628        -0.35142        -0.42272         0.13352
H        -0.00258         2.71438        -3.94400        -0.00643         0.00281        -0.00501         0.00469         0.11208        -0.43298         0.13369
H         0.00963        -2.04868        -4.31466         0.02404         0.02080         0.01454        -0.01440        -0.64223        -0.67729         0.13223
H        -0.01297         4.31347        -2.07581        -0.03238        -0.00260        -0.01390         0.02654         0.49092        -0.00990         0.13356
36
step: 2  T=      396.083K  Ek=     1.843116  Ep=     4.353703  E_gap=     7.072388  Err=       0.0000000000000000  time_stamp= 1669584964.3785
 C        -0.00162        -0.00064        -3.74753        -0.00202        -0.00077         0.00064         0.04803         0.20256        -0.49435        -0.11627
 C        -0.00585         1.35052         3.49912        -0.00730         0.00205         0.00272         0.06409         0.21907         0.26409        -0.11464
 C         0.00284         0.00378         3.74670         0.00355         0.00478        -0.00188        -0.04236         0.18952        -0.30671        -0.11197
 C         0.00192         1.85379         2.17002         0.00238         0.00215         0.00635        -0.05811        -0.54404        -0.73188        -0.03092
 C        -0.00326         3.24519         1.87910        -0.00404        -0.00117         0.00594         0.16061        -0.78051        -1.37037        -0.11066
 C         0.01066         3.69754         0.58006         0.01328        -0.00693        -0.00019        -0.22775        -0.72848         0.39820        -0.11282
 C        -0.00288         2.79436        -0.51860        -0.00358        -0.00801         0.00354         0.12163        -0.06418        -0.08839        -0.02837
 C         0.00055         2.35016        -2.91891         0.00068        -0.00473        -0.00258        -0.02101         0.40668         0.77709        -0.11417
 C         0.01188        -3.24619        -1.88109         0.01482        -0.00024        -0.00857        -0.14349         0.11921         0.77415        -0.11209
 C         0.00391        -3.70513        -0.58369         0.00486        -0.00236        -0.00437        -0.11916         1.53861        -0.46806        -0.10986
 C        -0.00667        -2.80145         0.52010        -0.00832        -0.00077        -0.00168         0.10268         0.42379        -0.00107        -0.03039
 C        -0.00288        -3.24646         1.87401        -0.00359        -0.00051         0.00000         0.07357         0.28281         0.23210        -0.11332
 C         0.00008         3.24560        -1.86867         0.00007        -0.00068         0.00663        -0.11742        -0.75905        -0.42738        -0.11357
 C        -0.00627        -0.94591         2.68302        -0.00781         0.00367        -0.00413         0.11693         0.34045        -0.40489        -0.02953
 C         0.00759         0.93337         1.08544         0.00946         0.00682         0.00111        -0.09956         0.00778         0.57776        -0.01246
 C         0.00198        -0.47775         1.34647         0.00247        -0.00290         0.00074        -0.03996         0.23170         0.24042        -0.01204
 C        -0.00072        -1.40742         0.26358        -0.00092        -0.00521         0.00282        -0.05920        -0.27299        -0.28137        -0.01169
 C        -0.00220         1.40775        -0.26045        -0.00273         0.00554         0.00103         0.09379        -0.09986         0.00031        -0.00988
 C        -0.00266        -1.35302        -3.49468        -0.00331        -0.00480         0.00300         0.06371         1.29994         0.43919        -0.11166
 C        -0.00184        -1.85489        -2.16936        -0.00229        -0.00353        -0.00552         0.04950         0.50301         0.75791        -0.02872
 C        -0.00616        -0.93228        -1.09101        -0.00767        -0.00550        -0.00792         0.09316        -0.16841         0.06126        -0.01186
 C         0.00118         0.47547        -1.34269         0.00145         0.00012         0.00388        -0.11050         0.06347        -0.69693        -0.01189
 C        -0.00198         0.95200        -2.68451        -0.00246         0.00385         0.00228         0.03307        -0.67379         0.43741        -0.02996
 C         0.00140        -2.34611         2.91753         0.00174         0.00986         0.00076        -0.03099        -0.13506        -1.11870        -0.11298
H         0.01051         3.93630         2.68251         0.01305        -0.01439        -0.02006        -0.03104         0.99005         1.20943         0.13120
H        -0.00842         4.75719         0.37688        -0.01035        -0.01429        -0.00287         0.05840         0.78248        -0.17722         0.13250
H         0.01861        -0.35366         4.77611         0.02319         0.01276         0.00669        -0.02320        -0.22679         0.34654         0.13332
H         0.01968        -4.32835         2.08648         0.02447        -0.01711         0.02006        -0.04516         0.07267        -0.09726         0.13532
H         0.01819        -2.68738         3.93655         0.02272         0.03129        -0.00414        -0.00813        -0.35501         0.89681         0.13233
H        -0.00978         2.08692         4.33374        -0.01222         0.03625         0.01549         0.00234        -0.30770        -0.27314         0.13583
H         0.01531         0.38168        -4.81107         0.01901         0.02065        -0.04663        -0.04542        -0.32376         0.92722         0.13693
H        -0.03465        -4.74530        -0.37795        -0.04316         0.02713         0.00180         0.04686        -1.48420         0.27052         0.13138
H        -0.00562        -3.94291        -2.71327        -0.00688         0.00789        -0.01608         0.05236        -0.37709        -0.40804         0.13376
H        -0.00515         2.71560        -3.94634        -0.00641         0.00318        -0.00651         0.00987         0.08036        -0.34914         0.13408
H         0.01924        -2.04085        -4.30936         0.02397         0.01785         0.01140        -0.02216        -0.89363        -0.95895         0.13123
H        -0.02591         4.31281        -2.08137        -0.03223        -0.00081        -0.01383         0.05402         0.44034         0.04341         0.13384
36
step: 3  T=      371.924K  Ek=     1.730698  Ep=     4.467521  E_gap=     7.060039  Err=       0.0000000000000000  time_stamp= 1669584964.7070
 C        -0.00243        -0.00094        -3.74731        -0.00200        -0.00068         0.00042         0.07936         0.36962        -0.87012        -0.11787
 C        -0.00877         1.35136         3.50022        -0.00727         0.00217         0.00285         0.09324         0.49104         0.54920        -0.11563
 C         0.00426         0.00570         3.74593         0.00353         0.00484        -0.00195        -0.06196         0.15785        -0.17108        -0.11187
 C         0.00287         1.85461         2.17251         0.00236         0.00197         0.00610        -0.08668        -0.59752        -0.84119        -0.03134
 C        -0.00486         3.24467         1.88138        -0.00397        -0.00145         0.00544         0.23462        -0.94403        -1.74889        -0.10997
 C         0.01596         3.69473         0.58001         0.01318        -0.00717        -0.00005        -0.33944        -0.75096         0.51022        -0.11314
 C        -0.00431         2.79115        -0.51719        -0.00353        -0.00798         0.00350         0.18049         0.23054        -0.19150        -0.02757
 C         0.00082         2.34829        -2.91989         0.00067        -0.00456        -0.00232        -0.03199         0.68394         0.85248        -0.11506
 C         0.01780        -3.24628        -1.88447         0.01476        -0.00022        -0.00830        -0.21479        -0.01883         0.89030        -0.11198
 C         0.00585        -3.70598        -0.58547         0.00481        -0.00180        -0.00454        -0.16164         1.91889        -0.60636        -0.10887
 C        -0.00999        -2.80173         0.51943        -0.00828        -0.00065        -0.00167         0.15585         0.31374         0.05604        -0.03058
 C        -0.00431        -3.24665         1.87403        -0.00356        -0.00045         0.00010         0.11672         0.14778         0.37682        -0.11374
 C         0.00010         3.24528        -1.86605         0.00002        -0.00093         0.00645        -0.17735        -0.80321        -0.67024        -0.11425
 C        -0.00938        -0.94442         2.68134        -0.00776         0.00379        -0.00424         0.17390         0.39865        -0.29597        -0.02930
 C         0.01136         0.93610         1.08592         0.00942         0.00680         0.00131        -0.14970        -0.17860         0.63033        -0.01278
 C         0.00297        -0.47889         1.34678         0.00245        -0.00279         0.00079        -0.05869         0.43737         0.07582        -0.01212
 C        -0.00109        -1.40952         0.26469        -0.00094        -0.00528         0.00270        -0.08842        -0.11369        -0.46523        -0.01167
 C        -0.00329         1.40995        -0.26004        -0.00270         0.00545         0.00103         0.14009        -0.45073         0.05680        -0.00898
 C        -0.00398        -1.35485        -3.49345        -0.00328        -0.00432         0.00313         0.08927         1.67550         0.39628        -0.11153
 C        -0.00275        -1.85627        -2.17152        -0.00227        -0.00336        -0.00526         0.07397         0.53610         0.88078        -0.02805
 C        -0.00922        -0.93449        -1.09418        -0.00764        -0.00553        -0.00786         0.13996        -0.05342         0.31349        -0.01189
 C         0.00175         0.47552        -1.34118         0.00140         0.00013         0.00364        -0.16553        -0.00622        -0.75682        -0.01191
 C        -0.00296         0.95349        -2.68357        -0.00245         0.00360         0.00240         0.04976        -0.89267         0.35406        -0.03003
 C         0.00210        -2.34217         2.91776         0.00173         0.00979         0.00037        -0.04869        -0.29759        -1.32515        -0.11342
H         0.01571         3.93131         2.67541         0.01291        -0.01006        -0.01482        -0.03960         1.26681         1.52573         0.13035
H        -0.01251         4.75207         0.37560        -0.01008        -0.01116        -0.00357         0.08575         0.85576        -0.18733         0.13220
H         0.02787        -0.34873         4.77905         0.02308         0.01190         0.00783        -0.03651        -0.22459         0.24818         0.13338
H         0.02943        -4.33513         2.09443         0.02424        -0.01629         0.01954        -0.07491         0.35507        -0.17622         0.13630
H         0.02727        -2.67514         3.93558         0.02268         0.02977        -0.00047        -0.00930        -0.43480         1.01949         0.13199
H        -0.01467         2.10119         4.33973        -0.01221         0.03450         0.01392         0.00577        -0.60626        -0.54592         0.13700
H         0.02288         0.38969        -4.82901         0.01877         0.01900        -0.04202        -0.07823        -0.53829         1.48360         0.13848
H        -0.05188        -4.73559        -0.37702        -0.04297         0.02073         0.00293         0.05217        -1.85681         0.32090         0.13068
H        -0.00834        -3.94004        -2.72001        -0.00663         0.00644        -0.01756         0.07885        -0.37875        -0.36499         0.13407
H        -0.00770         2.71693        -3.94921        -0.00636         0.00342        -0.00764         0.01563         0.04115        -0.24475         0.13451
H         0.02881        -2.03439        -4.30553         0.02388         0.01405         0.00731        -0.02523        -1.09113        -1.18111         0.13040
H        -0.03876         4.31282        -2.08687        -0.03197         0.00072        -0.01356         0.08326         0.35828         0.10233         0.13419
36
step: 1  T=      413.178K  Ek=     1.922664  Ep=     4.273019  E_gap=     7.086504  Err=       0.0000000000000000  time_stamp= 1669585281.5256
 C        -0.00081        -0.00032        -3.74782        -0.00203        -0.00081         0.00072         0.02076         0.00319        -0.02858        -0.11445
 C        -0.00293         1.34972         3.49804        -0.00731         0.00203         0.00269         0.03305        -0.07865        -0.05684        -0.11357
 C         0.00142         0.00187         3.74743         0.00356         0.00472        -0.00176        -0.02151         0.21003        -0.42163        -0.11216
 C         0.00096         1.85289         2.16743         0.00240         0.00232         0.00656        -0.02917        -0.48241        -0.61147        -0.03044
 C        -0.00164         3.24561         1.87663        -0.00408        -0.00096         0.00631         0.08255        -0.56663        -0.92402        -0.11152
 C         0.00534         3.70027         0.58016         0.01333        -0.00671        -0.00030        -0.11466        -0.65385         0.27334        -0.11260
 C        -0.00145         2.79756        -0.52002        -0.00361        -0.00794         0.00355         0.06134        -0.35076         0.01418        -0.02916
 C         0.00027         2.35208        -2.91783         0.00069        -0.00482        -0.00281        -0.01040         0.12641         0.67193        -0.11330
 C         0.00595        -3.24609        -1.87761         0.01485        -0.00030        -0.00879        -0.07207         0.23693         0.62447        -0.11225
 C         0.00196        -3.70409        -0.58198         0.00489        -0.00278        -0.00424        -0.06652         1.06346        -0.30754        -0.11110
 C        -0.00334        -2.80111         0.52078        -0.00834        -0.00092        -0.00167         0.05055         0.52767        -0.05946        -0.03016
 C        -0.00144        -3.24623         1.87403        -0.00361        -0.00063        -0.00005         0.03446         0.42242         0.08369        -0.11289
 C         0.00004         3.24582        -1.87135         0.00010        -0.00045         0.00672        -0.05849        -0.67554        -0.18081        -0.11297
 C        -0.00314        -0.94736         2.68465        -0.00784         0.00357        -0.00398         0.05889         0.27812        -0.50602        -0.02975
 C         0.00380         0.93064         1.08503         0.00948         0.00679         0.00094        -0.04957         0.19419         0.51536        -0.01215
 C         0.00099        -0.47657         1.34619         0.00248        -0.00294         0.00063        -0.02038         0.02038         0.39954        -0.01193
 C        -0.00036        -1.40535         0.26243        -0.00090        -0.00510         0.00288        -0.02966        -0.42714        -0.08999        -0.01175
 C        -0.00111         1.40553        -0.26086        -0.00276         0.00551         0.00103         0.04703         0.24333        -0.05487        -0.01083
 C        -0.00133        -1.35101        -3.49585        -0.00332        -0.00514         0.00286         0.03449         0.86330         0.43240        -0.11199
 C        -0.00092        -1.85344        -2.16710        -0.00230        -0.00369        -0.00574         0.02483         0.46155         0.62433        -0.02935
 C        -0.00308        -0.93009        -1.08784        -0.00770        -0.00542        -0.00790         0.04641        -0.27771        -0.19188        -0.01183
 C         0.00059         0.47542        -1.34429         0.00147         0.00009         0.00409        -0.05523         0.13087        -0.62815        -0.01186
 C        -0.00099         0.95041        -2.68539        -0.00247         0.00403         0.00212         0.01643        -0.44515         0.51994        -0.02993
 C         0.00070        -2.35006         2.91715         0.00175         0.00988         0.00108        -0.01432         0.01312        -0.84960        -0.11267
H         0.00527         3.94282         2.69146         0.01314        -0.01754        -0.02396        -0.01822         0.65817         0.82561         0.13223
H        -0.00423         4.76351         0.37789        -0.01052        -0.01705        -0.00223         0.03013         0.65816        -0.15708         0.13289
H         0.00931        -0.35893         4.77369         0.02326         0.01362         0.00522        -0.01117        -0.22036         0.42089         0.13330
H         0.00985        -4.32145         2.07838         0.02460        -0.01682         0.02028        -0.01999        -0.22020        -0.01833         0.13432
H         0.00910        -2.70017         3.93889         0.02274         0.03245        -0.00722        -0.00546        -0.25319         0.71518         0.13279
H        -0.00489         2.07219         4.32734        -0.01223         0.03680         0.01594         0.00032         0.01891         0.03485         0.13460
H         0.00767         0.37317        -4.79171         0.01913         0.02141        -0.04892        -0.01841        -0.07360         0.26991         0.13520
H        -0.01735        -4.75729        -0.37846        -0.04331         0.03191         0.00089         0.03088        -1.01436         0.20351         0.13230
H        -0.00283        -3.94635        -2.70715        -0.00703         0.00928        -0.01449         0.02628        -0.35142        -0.42272         0.13352
H        -0.00258         2.71438        -3.94400        -0.00643         0.00281        -0.00501         0.00469         0.11208        -0.43298         0.13369
H         0.00963        -2.04868        -4.31466         0.02404         0.02080         0.01454        -0.01440        -0.64223        -0.67729         0.13223
H        -0.01297         4.31347        -2.07581        -0.03238        -0.00260        -0.01390         0.02654         0.49092        -0.00990         0.13356
36
step: 2  T=      396.083K  Ek=     1.843116  Ep=     4.353703  E_gap=     7.072388  Err=       0.0000000000000000  time_stamp= 1669585281.9187
 C        -0.00162        -0.00064        -3.74753        -0.00202        -0.00077         0.00064         0.04803         0.20256        -0.49435        -0.11627
 C        -0.00585         1.35052         3.49912        -0.00730         0.00205         0.00272         0.06409         0.21907         0.26409        -0.11464
 C         0.00284         0.00378         3.74670         0.00355         0.00478        -0.00188        -0.04236         0.18952        -0.30671        -0.11197
 C         0.00192         1.85379         2.17002         0.00238         0.00215         0.00635        -0.05811        -0.54404        -0.73188        -0.03092
 C        -0.00326         3.24519         1.87910        -0.00404        -0.00117         0.00594         0.16061        -0.78051        -1.37037        -0.11066
 C         0.01066         3.69754         0.58006         0.01328        -0.00693        -0.00019        -0.22775        -0.72848         0.39820        -0.11282
 C        -0.00288         2.79436        -0.51860        -0.00358        -0.00801         0.00354         0.12163        -0.06418        -0.08839        -0.02837
 C         0.00055         2.35016        -2.91891         0.00068        -0.00473        -0.00258        -0.02101         0.40668         0.77709        -0.11417
 C         0.01188        -3.24619        -1.88109         0.01482        -0.00024        -0.00857        -0.14349         0.11921         0.77415        -0.11209
 C         0.00391        -3.70513        -0.58369         0.00486        -0.00236        -0.00437        -0.11916         1.53861        -0.46806        -0.10986
 C        -0.00667        -2.80145         0.52010        -0.00832        -0.00077        -0.00168         0.10268         0.42379        -0.00107        -0.03039
 C        -0.00288        -3.24646         1.87401        -0.00359        -0.00051         0.00000         0.07357         0.28281         0.23210        -0.11332
 C         0.00008         3.24560        -1.86867         0.00007        -0.00068         0.00663        -0.11742        -0.75905        -0.42738        -0.11357
 C        -0.00627        -0.94591         2.68302        -0.00781         0.00367        -0.00413         0.11693         0.34045        -0.40489        -0.02953
 C         0.00759         0.93337         1.08544         0.00946         0.00682         0.00111        -0.09956         0.00778         0.57776        -0.01246
 C         0.00198        -0.47775         1.34647         0.00247        -0.00290         0.00074        -0.03996         0.23170         0.24042        -0.01204
 C        -0.00072        -1.40742         0.26358        -0.00092        -0.00521         0.00282        -0.05920        -0.27299        -0.28137        -0.01169
 C        -0.00220         1.40775        -0.26045        -0.00273         0.00554         0.00103         0.09379        -0.09986         0.00031        -0.00988
 C        -0.00266        -1.35302        -3.49468        -0.00331        -0.00480         0.00300         0.06371         1.29994         0.43919        -0.11166
 C        -0.00184        -1.85489        -2.16936        -0.00229        -0.00353        -0.00552         0.04950         0.50301         0.75791        -0.02872
 C        -0.00616        -0.93228        -1.09101        -0.00767        -0.00550        -0.00792         0.09316        -0.16841         0.06126        -0.01186
 C         0.00118         0.47547        -1.34269         0.00145         0.00012         0.00388        -0.11050         0.06347        -0.69693        -0.01189
 C        -0.00198         0.95200        -2.68451        -0.00246         0.00385         0.00228         0.03307        -0.67379         0.43741        -0.02996
 C         0.00140        -2.34611         2.91753         0.00174         0.00986         0.00076        -0.03099        -0.13506        -1.11870        -0.11298
H         0.01051         3.93630         2.68251         0.01305        -0.01439        -0.02006        -0.03104         0.99005         1.20943         0.13120
H        -0.00842         4.75719         0.37688        -0.01035        -0.01429        -0.00287         0.05840         0.78248        -0.17722         0.13250
H         0.01861        -0.35366         4.77611         0.02319         0.01276         0.00669        -0.02320        -0.22679         0.34654         0.13332
H         0.01968        -4.32835         2.08648         0.02447        -0.01711         0.02006        -0.04516         0.07267        -0.09726         0.13532
H         0.01819        -2.68738         3.93655         0.02272         0.03129        -0.00414        -0.00813        -0.35501         0.89681         0.13233
H        -0.00978         2.08692         4.33374        -0.01222         0.03625         0.01549         0.00234        -0.30770        -0.27314         0.13583
H         0.01531         0.38168        -4.81107         0.01901         0.02065        -0.04663        -0.04542        -0.32376         0.92722         0.13693
H        -0.03465        -4.74530        -0.37795        -0.04316         0.02713         0.00180         0.04686        -1.48420         0.27052         0.13138
H        -0.00562        -3.94291        -2.71327        -0.00688         0.00789        -0.01608         0.05236        -0.37709        -0.40804         0.13376
H        -0.00515         2.71560        -3.94634        -0.00641         0.00318        -0.00651         0.00987         0.08036        -0.34914         0.13408
H         0.01924        -2.04085        -4.30936         0.02397         0.01785         0.01140        -0.02216        -0.89363        -0.95895         0.13123