12
step: 1  T=      423.315K  Ek=     0.656613  Ep=     1.009307  E_gap=    10.172680  Err=       0.0018014660666470  time_stamp= 1669870701.0822
 C        -0.00487        -0.00091        -1.39638         0.00454        -0.00226        -0.00101         0.34124         0.15667         0.25096        -0.12905
 C        -1.14998        -0.34941        -0.69834        -0.00830         0.00146        -0.00093        -0.16201        -0.14202         0.16858        -0.13045
 C         1.15494         0.35182        -0.69844         0.00395         0.00453        -0.00111        -0.43509        -0.16006         0.49941        -0.12996
 C        -1.14714        -0.34847         0.69925        -0.00109         0.00384         0.00288         0.57694         0.08326        -0.96132        -0.12731
 C         1.14963         0.35036         0.70085        -0.00919         0.00091         0.00692         0.37497         0.06626        -0.64416        -0.12952
 C        -0.00363        -0.00167         1.39517         0.00763        -0.00415        -0.00219         0.22050         0.18455        -0.05939        -0.12762
H        -2.05588        -0.64118        -1.23899        -0.02337        -0.02796         0.00723        -0.18119        -0.00333        -0.10060         0.12916
H         2.05329         0.62347        -1.24527         0.00065        -0.01606        -0.00867         0.39658         0.13708        -0.20256         0.12967
H        -2.02222        -0.62929         1.22663         0.05854         0.00105        -0.03454        -1.34939        -0.37913         0.77136         0.12662
H         2.06371         0.62744         1.23648         0.02612        -0.00631        -0.01111         0.09319         0.04293         0.15222         0.12955
H        -0.01862         0.00068         2.47976        -0.02970         0.00171        -0.00458         0.09543         0.00367         0.57984         0.12935
H        -0.00784        -0.00166        -2.48372        -0.00289        -0.00413        -0.00278         0.02882         0.01011        -0.45434         0.12956
12
step: 1  T=      382.367K  Ek=     0.593097  Ep=     1.071592  E_gap=    10.146759  Err=       0.0016495749069360  time_stamp= 1669870702.5633
 C        -0.00304        -0.00180        -1.39677         0.00461        -0.00221        -0.00092         0.12343         0.15299         0.31252        -0.12940
 C        -1.15331        -0.34883        -0.69871        -0.00834         0.00141        -0.00089        -0.06673        -0.17903         0.05813        -0.13209
 C         1.15649         0.35362        -0.69885         0.00379         0.00446        -0.00093        -0.59672        -0.25943         0.59807        -0.12988
 C        -1.14754        -0.34693         0.70034        -0.00077         0.00390         0.00247         1.41316         0.29301        -1.62207        -0.12617
 C         1.14598         0.35073         0.70358        -0.00897         0.00095         0.00668         0.96992         0.18099        -0.86827        -0.12895
 C        -0.00056        -0.00332         1.39429         0.00765        -0.00409        -0.00218        -0.09321         0.20100         0.09254        -0.12674
H        -2.06537        -0.65237        -1.23618        -0.02363        -0.02777         0.00701         0.04495         0.10199        -0.01500         0.13017
H         2.05385         0.61715        -1.24890         0.00224        -0.01547        -0.00941         0.43200         0.17161        -0.18431         0.13013
H        -1.99984        -0.62916         1.21340         0.05160        -0.00094        -0.03049        -2.27542        -0.66159         1.34710         0.12456
H         2.07423         0.62495         1.23215         0.02600        -0.00624        -0.01066        -0.15811        -0.00808         0.08073         0.12973
H        -0.03043         0.00137         2.47838        -0.02921         0.00171        -0.00230         0.16455        -0.00172         0.60867         0.12918
H        -0.00898        -0.00330        -2.48518        -0.00275        -0.00409        -0.00443         0.04219         0.00827        -0.40811         0.12944
12
step: 2  T=      327.865K  Ek=     0.508558  Ep=     1.152193  E_gap=    10.118204  Err=       0.0009876443158663  time_stamp= 1669870702.9494
 C        -0.00118        -0.00268        -1.39711         0.00463        -0.00216        -0.00081         0.00933         0.13426         0.33839        -0.12996
 C        -1.15665        -0.34828        -0.69906        -0.00836         0.00135        -0.00088        -0.03795        -0.19004         0.00453        -0.13319
 C         1.15797         0.35539        -0.69918         0.00357         0.00437        -0.00074        -0.76164        -0.31883         0.58430        -0.12989
 C        -1.14776        -0.34535         0.70123        -0.00021         0.00403         0.00184         2.08619         0.52764        -2.26309        -0.12595
 C         1.14246         0.35112         0.70619        -0.00859         0.00103         0.00639         1.43959         0.31170        -0.95733        -0.12802
 C         0.00249        -0.00494         1.39342         0.00760        -0.00402        -0.00213        -0.24312         0.18627         0.25267        -0.12558
H        -2.07478        -0.66340        -1.23339        -0.02304        -0.02722         0.00712         0.26372         0.18439         0.07185         0.13157
H         2.05508         0.61109        -1.25280         0.00391        -0.01480        -0.01005         0.44113         0.17849        -0.14961         0.13110
H        -1.98094        -0.63004         1.20224         0.04134        -0.00402        -0.02435        -3.07904        -0.94396         1.85719         0.12202
H         2.08451         0.62245         1.22795         0.02496        -0.00638        -0.01050        -0.38173        -0.06528         0.00473         0.12978
H        -0.04198         0.00205         2.47792        -0.02849         0.00170         0.00000         0.20971        -0.00518         0.59584         0.12907
H        -0.01005        -0.00494        -2.48727        -0.00257        -0.00408        -0.00586         0.05380         0.00054        -0.33947         0.12904
540
step: 1  T=      390.406K  Ek=    27.250463  Ep=   174.925483  E_gap=     3.664865  Err=       0.0047090435312073  time_stamp= 1669870788.1711
 C        -0.00017        -0.00041       -11.12189         0.00006        -0.00136         0.00107         3.01637        -2.07896        -1.10767        -0.02726
 C       -10.39595         1.53546        -1.94146        -0.01182         0.00195         0.00284        -0.79294        -0.10000        -1.49117         0.01728
 C        -9.84164         2.82138        -1.99943         0.00009         0.00467        -0.00112        -0.16430         0.45706        -0.43973         0.00217
 C        -9.34936         3.33187        -3.21123        -0.00205         0.00242         0.00728        -0.43331         0.24509         0.45250         0.00200
 C        -9.40530         2.56064        -4.37799        -0.00968        -0.00096         0.00673        -0.99401        -0.38426        -0.54978         0.01745
 C        -9.83709         0.31942        -5.16393         0.00805        -0.00627        -0.00096         0.44944         0.17300        -3.54869        -0.02722
 C       -10.14348        -0.84629        -4.47683        -0.00708        -0.00867         0.00344        -0.10477        -3.31742        -1.86175        -0.02674
 C       -10.62592        -0.49466        -3.23027        -0.00172        -0.00545        -0.00154        -1.76932        -2.13067         2.46752        -0.02676
 C       -10.61836         0.88922        -3.14632         0.01671         0.00020        -0.00710        -2.06904         1.96432         3.06166        -0.02782
 C       -10.13674         1.39153        -4.33991         0.00737        -0.00182        -0.00376        -0.27722         3.57900        -1.14026        -0.02643
 C        -7.71978         6.44097         0.38552        -0.00698        -0.00093        -0.00076         0.13341         0.41533         0.57978         0.00244
 C        -8.53930         5.30262         0.38574        -0.00284        -0.00077         0.00078        -0.38641        -0.13825         0.64915         0.00214
 C        -8.88944         4.68122         1.59488        -0.00336        -0.00009         0.00686        -0.08040         0.55677        -0.84152         0.00040
 C        -9.41301         3.37848         1.61880        -0.00959         0.00331        -0.00323        -0.30632        -0.22179        -0.40271         0.00100
 C        -9.41510         2.62455         2.80514         0.00618         0.00621         0.00136        -0.56805        -0.98316        -0.09350         0.00039
 C        -9.58508         1.22968         2.78321         0.00076        -0.00258         0.00113        -0.08671         0.82092         0.18262         0.00172
 C        -9.25464         0.45712         3.90917        -0.00099        -0.00461         0.00357        -0.04384         0.65097         0.47490         0.00253
 C        -8.75488         1.07030         5.06704        -0.00538         0.00510         0.00150        -0.44031        -0.41260        -0.36190        -0.00011
 C        -8.10493         0.32273         6.06793        -0.00142        -0.00540         0.00328        -0.34426        -0.69590        -0.14949         0.00004
 C        -7.29599         0.94605         7.03053        -0.00055        -0.00376        -0.00482         0.21000        -0.25345         0.71998         0.00085
 C        -6.37387         0.21850         7.79207        -0.00743        -0.00493        -0.00683        -0.15750         0.58414         0.19526         0.00233
 C        -5.34784         0.88052         8.49673         0.00021         0.00031         0.00482        -0.46843         0.64407        -0.10910         0.00223
 C        -5.23995         2.27856         8.44203        -0.00331         0.00382         0.00265        -0.09474        -0.76855         0.32340         0.00043
 C        -4.05969         2.93913         8.83208         0.00101         0.00947         0.00218         0.26926        -0.78300         0.60707         0.00102
 C        -3.80473         4.25915         8.43934         0.00208        -0.00553        -0.00679         0.47409         0.71346         0.30997         0.00116
 C        -2.51597         4.80165         8.49653        -0.00475        -0.00564         0.00006        -0.45933         0.21835         0.02013         0.00228
 C        -2.20715         5.98406         7.79680         0.00540         0.00382         0.00149        -0.80929         0.01519         0.02589         0.00285
 C        -3.18783         6.63008         7.03676         0.00757        -0.00463         0.00631        -0.04849         0.10825         0.31509        -0.00079
 C        -2.85190         7.59969         6.06802         0.00643         0.00909        -0.00209         0.44047         0.16927         0.34282        -0.00008
 C        -3.76610         7.98296         5.07077        -0.00488         0.00997         0.00454         0.16057         0.60404        -0.62467        -0.00026
 C       -10.37154         0.75531        -0.78807         0.00590         0.00519        -0.01301        -0.50936        -0.80392         0.89340         0.00255
 C       -10.37915        -0.64761        -0.87037        -0.01077         0.00943         0.00059        -0.14605         0.31616         0.41728         0.00150
 C       -10.39251        -1.28161        -2.12003        -0.00071         0.00260        -0.00348        -1.10476         0.36551        -0.67589         0.01716
 C        -9.84413        -2.55082        -2.33453        -0.00183        -0.00001        -0.00072        -0.02472        -0.59940        -0.60155         0.00216
 C        -7.07663         1.67231        -7.11914         0.00812         0.00611         0.00496        -0.05619         0.55382        -0.39390         0.00074
 C        -6.59862         0.47781        -7.68699        -0.00961        -0.00164        -0.00364         0.66648         0.27286        -0.70139         0.00103
 C        -7.08066        -0.77204        -7.27297         0.00006         0.00418         0.00166         0.03990        -0.92780        -0.38426         0.00084
 C        -6.37665        -1.95530        -7.54373         0.00045         0.00175        -0.00552        -0.42752         0.40988         0.05575         0.00171
 C        -6.67967        -3.13545        -6.84279         0.00200         0.00322         0.00580        -0.58929         0.00141        -0.10493         0.00232
 C        -7.69247        -3.15263        -5.87866        -0.00305        -0.00865        -0.01239         0.07611         0.15414        -0.26901         0.00020
 C        -7.79287        -4.19167        -4.93307         0.00631        -0.00449         0.00627        -0.09271        -0.33375        -0.38707         0.00093
 C        -8.54970        -4.03812        -3.75936        -0.00075         0.00310         0.00080        -0.31304        -0.52096         0.56529        -0.00030
 C        -8.37870        -4.89655        -2.66275        -0.00278         0.00015         0.00284        -0.27003         0.29998        -0.60745         0.00181
 C        -8.86982        -4.53889        -1.39583        -0.00037         0.00488         0.00510        -0.41917         0.18316        -0.31348         0.00344
 C        -9.53835        -3.32657        -1.21331         0.00332        -0.00690        -0.00189        -0.17801        -0.29363        -0.10085         0.00101
 C        -9.74075        -2.78594         0.07012         0.00079        -0.00420         0.00307        -0.13556        -0.29101         0.46517         0.00084
 C       -10.06922        -1.42954         0.25040        -0.00030         0.00118         0.00941        -0.36144         0.40552         0.15209        -0.00019
 C        -9.91586        -0.79406         1.48850         0.00085         0.00461         0.00243        -0.36257        -0.28071        -0.51604         0.00235
 C        -3.34300         8.65005         3.90724         0.00267         0.00899        -0.00638        -0.46876        -0.28932         1.00970         0.00235
 C        -9.91370         0.60624         1.57446         0.00342         0.00259        -0.00163        -0.33643         0.24729        -0.33904         0.00288
 C        -9.73670         2.75627         0.41477         0.00157         0.00825         0.00077        -0.26112        -0.01591         0.63488         0.00064
 C        -9.53543         3.44681        -0.79040         0.00310        -0.00056        -0.00014        -0.13236         0.59101        -0.08834         0.00082
 C        -8.86933         4.67340        -0.81951        -0.00665        -0.01031         0.00753        -0.21069         0.02846        -0.33261         0.00223
 C        -8.37604         5.18451        -2.03523        -0.00260        -0.00747        -0.00131        -0.14660         0.21332        -0.01820         0.00170
 C        -8.54702         4.47744        -3.22573         0.00108         0.00973         0.00680        -0.36698         0.06297         0.27104         0.00087
 C        -7.79252         4.77074        -4.37411         0.00480         0.00340         0.00704         0.17728         0.72345        -0.23548         0.00095
 C        -7.68998         3.85606        -5.43589         0.00081         0.00558         0.00392         0.35387        -0.08528        -0.90363        -0.00061
 C        -8.49037         2.70841        -5.42968        -0.00470        -0.00163         0.00079         0.17590        -0.12213        -0.80523         0.00120
 C        -8.18330         1.62194        -6.27295         0.00221         0.00290        -0.00931        -0.49699         0.67720         0.39263         0.00163
 C        -8.79334         0.37485        -6.06180        -0.00456        -0.00737         0.00433        -1.12445         0.31055        -0.20379         0.01684
 C        -8.18531        -0.83159        -6.42238        -0.00052        -0.00297        -0.00087        -0.28323        -0.91362         0.03451         0.00153
 C        -8.49268        -2.01508        -5.72183        -0.00706        -0.00192         0.00621         0.45289         0.24366        -1.27605         0.00212
 C        -9.40508        -1.99830        -4.67005        -0.00529        -0.00120        -0.01252        -1.53322         0.49468         0.17753         0.01764
 C        -9.35442        -2.90623        -3.60490        -0.01062         0.00210        -0.00333        -0.35379        -0.32678         0.62257         0.00182
 C       -10.06619         1.38598         0.42354         0.00192        -0.00360         0.00402        -0.24057        -0.10915         0.22133        -0.00017
 C        -4.18079         8.71873         2.78673         0.00022         0.00286         0.00543        -0.67576        -0.07517         0.01980         0.00326
 C        -5.44684         8.12005         2.80591         0.00515        -0.00223         0.00143         0.35905         0.54836        -0.00072         0.00061
 C        -6.16378         7.87351         1.62088        -0.00018        -0.00523         0.00000         0.40526         0.79301        -0.76561         0.00022
 C        -0.41450       -10.05141        -1.19139         0.00236         0.00139         0.00252         0.42778        -0.35316         0.48532         0.00076
 C        -1.80272        -9.95872        -0.99983         0.00447         0.00572         0.00795        -0.51269        -0.29262         0.23300         0.00047
 C        -2.35936        -9.77551         0.27040        -0.00261        -0.00831        -0.00079         0.28664        -0.17676        -0.33171         0.00284
 C        -3.68603        -9.34607         0.41163         0.00709         0.00362        -0.00218        -0.53866        -0.19082        -0.47211         0.00260
 C        -4.48005        -9.10184        -0.71668         0.00255         0.00821         0.00364         0.38247        -0.54518         0.30983         0.00002
 C        -5.67303        -8.36529        -0.63211         0.00474         0.01062         0.00128        -0.44091        -0.17907         0.60062         0.00081
 C        -6.27058        -7.81148        -1.77593         0.00046         0.00532         0.00241        -0.60112         0.19386        -0.25116         0.00029
 C        -7.22743        -6.79452        -1.68328         0.00282         0.00060        -0.00663         0.05955        -0.44752        -0.10241         0.00188
 C        -7.55901        -6.02225        -2.81013        -0.00238        -0.00068        -0.01157         0.09748        -0.25976        -0.25943         0.00208
 C        -6.93111        -6.25732        -4.03976         0.00638         0.00310        -0.00378        -0.63560        -0.21779         0.60667         0.00071
 C        -6.98085        -5.31124        -5.07429        -0.00862         0.00461         0.00570        -0.25197         0.25156        -0.34090         0.00120
 C        -6.07695        -5.36590        -6.15194        -0.00479         0.00477         0.00022         0.00300         0.19407        -0.61192        -0.00010
 C        -5.23859        -6.47637        -6.28193         0.00127         0.00294         0.00579         0.32450         0.06813        -0.90475         0.00140
 C        -4.10954        -6.42240        -7.12518         0.00197         0.00754        -0.00365        -0.95648        -0.21365         0.24657         0.00185
 C         0.15975        -9.87410        -2.46299        -0.00004        -0.00409        -0.00426         0.72934        -0.18013         0.07555         0.00115
 C        -3.12085        -7.41150        -7.04138        -0.00020        -0.00275        -0.00189        -0.49124        -1.30102        -0.06142         0.01725
 C        -0.75210        -7.91676        -6.75938         0.00580        -0.00714         0.00728        -0.42790         0.59879        -1.09015         0.00214
 C        -1.05519        -8.90105        -5.82012         0.00381        -0.00036        -0.00379        -1.23831        -1.24879        -0.15141         0.01712
 C        -0.17703        -9.26694        -4.79500        -0.00027        -0.00035        -0.00101         0.12783        -0.73361         0.69331         0.00136
 C        -0.66917        -9.78159        -3.57765         0.00204        -0.00681         0.00502         0.49783         0.02021        -1.08941         0.00223
 C        -2.04665        -9.92741        -3.38726        -0.00030         0.00088        -0.01484        -0.68725        -0.77230        -0.42228         0.01749
 C        -2.63785        -9.86591        -2.11676         0.00739         0.00849        -0.00053        -0.93261        -0.22813         0.25598         0.00081
 C        -3.97629        -9.44298        -1.97564        -0.00437        -0.00176        -0.00338         0.86189        -0.57083         0.44256         0.00166
 C        -4.72304        -9.07077        -3.09518        -0.00273        -0.00015         0.00335        -0.11983        -0.95851        -1.26152         0.01733
 C        -5.77068        -8.14504        -3.03734        -0.00278         0.00212        -0.00187        -0.59788         0.24166        -0.39641         0.00185
 C        -6.09877        -7.37016        -4.16414         0.00325         0.00158        -0.00000        -0.35811        -0.54535         0.67150         0.00247
 C        -5.38486        -7.51764        -5.35584         0.00094        -0.00658         0.00436         0.20720        -1.17402        -0.74579         0.01719
 C        -3.39295        -8.52959        -6.27430         0.00914        -0.00328        -0.00037        -0.47199         1.44960        -3.66452        -0.02673
 C        -2.38640        -9.25828        -5.67598        -0.00354         0.00234        -0.00151         3.66911        -1.24926        -1.58710        -0.02676
 C        -2.87047        -9.76098        -4.47907        -0.00132         0.00368         0.00311         1.57107        -2.71423         1.85490        -0.02672
 C        -1.78286        -7.17142        -7.37042         0.00066        -0.00086         0.00383         0.89071        -0.64105        -0.09686         0.00182
 C        -6.37550         2.87883        -7.23913         0.00166         0.00644         0.00139        -0.35864        -0.59834        -0.24730         0.00319
 C         1.52500        -9.59796        -2.61170        -0.00224        -0.00046         0.00109        -0.45458        -0.35542        -0.05247         0.00269
 C         1.15150        -8.84762        -4.89895         0.00503        -0.00556        -0.00242         0.22437        -0.39451         0.35023         0.00034
 C        -7.23497         6.96946         1.59262         0.00575        -0.00207         0.00090        -0.68305        -0.11697        -0.76093         0.00071
 C        -7.71379         6.44416         2.79070         0.00246         0.00325        -0.00558        -0.77858        -0.50594         0.04324         0.00136
 C        -8.53653         5.30060         2.79062         0.00417        -0.00277        -0.00448         0.09233         1.07267         0.07382         0.00173
 C        -8.77926         4.61048         3.98404         0.00049         0.01675         0.00960        -0.60045         0.14482         0.72947         0.01682
 C        -9.06783         3.23508         4.00531         0.00208        -0.00170        -0.00820        -0.13375        -0.09325         0.99857         0.00133
 C        -8.73605         2.46364         5.13659         0.00303         0.00449         0.00013        -0.75255         0.13589        -0.79976         0.00196
 C        -8.11562         3.04949         6.24173         0.00070         0.00096        -0.00466        -0.62072         1.19596         0.76787         0.01740
 C        -7.27918         2.33780         7.10872        -0.00784        -0.00720        -0.00113         0.73840         0.48250         0.87990         0.00174
 C        -6.24716         3.00491         7.81002         0.00973         0.00495        -0.00296        -1.24017        -0.92824        -0.08707         0.00207
 C        -6.05985         4.37698         7.65028        -0.00161        -0.00456         0.00353        -1.19047         1.34637        -0.00358         0.01694
 C        -4.81188         4.99289         7.81165         0.00379        -0.00178        -0.00075         0.05219         0.78463         0.00812         0.00209
 C        -4.51132         6.17395         7.11035        -0.00973        -0.00248         0.00061         0.62304        -0.31145         0.82655         0.00244
 C        -5.44015         6.75011         6.24309         0.00953        -0.00107        -0.00431        -1.97243         0.13346         0.65228         0.01728
 C        -5.08426         7.52626         5.13985        -0.00524         0.00042         0.00386        -0.18319         0.66297        -0.84641         0.00239
 C         2.01446        -9.08895        -3.82456        -0.00727        -0.00532        -0.00160         0.00139        -0.05576        -0.42219         0.00232
 C        -5.91969         7.59467         4.00683         0.00246        -0.00562        -0.00754         0.49292         0.46062         0.92379         0.00202
 C        -8.36408         5.18970         5.16284         0.00429        -0.00437         0.00188        -3.26131        -0.35756        -2.09536        -0.02600
 C        -8.04267         4.42840         6.27245        -0.00442        -0.00341         0.00234        -1.80632        -2.74344         1.50645        -0.02714
 C        -7.03127         5.08621         6.95987        -0.00017         0.01271         0.00216         1.09520        -1.34673         3.65204        -0.02752
 C        -6.73300         6.24625         6.27147        -0.00483         0.00318        -0.00212         2.44069         3.07086         1.31684        -0.02723
 C        -7.55935         6.31366         5.16154        -0.00901        -0.00057        -0.00223        -0.23535         3.21196        -2.10175        -0.02676
 C        -5.86379        -4.26239        -6.98882        -0.00782        -0.00097        -0.00638         0.01130        -0.54078         0.23819         0.00223
 C        -4.73298        -4.20616        -7.82214         0.00520         0.01011         0.00468        -0.00110        -0.98315        -0.02866         0.00277
 C        -3.81020        -5.26172        -7.83804         0.00073         0.00498        -0.00344        -0.61922         0.33647        -0.12363         0.00062
 C        -2.52632        -5.10565        -8.38547         0.00137         0.00524         0.00108         0.31351         0.19918        -0.61544         0.00009
 C        -1.48646        -6.01114        -8.08458         0.00960        -0.01047        -0.00145         0.30606         0.31822        -0.33563         0.00012
 C        -0.14595        -5.67418        -8.31035         0.00132         0.01393         0.00607        -0.46695        -0.74651        -0.02063         0.00249
 C         0.88169        -6.41827        -7.70221         0.00465         0.00508         0.00456        -0.53033        -0.70174         0.09621         0.00242
 C         0.57574        -7.49883        -6.86144         0.00450        -0.00445        -0.00382         0.10136         0.38899        -0.59672         0.00014
 C         1.53276        -8.03542        -5.98165         0.00906         0.00068        -0.00040         0.40542        -0.08772        -0.22622         0.00092
 C        -7.12538         6.88949         3.98233         0.00590        -0.00514         0.00415        -1.14291         0.19328         0.90079         0.01674
 C        -4.18366        -9.34241        -4.33918        -0.00511         0.00008         0.00349        -2.40805        -1.41083         2.59579        -0.02706
 C        -6.67460         3.96220        -6.40626         0.01272         0.00082        -0.00860        -1.14528         0.08626         0.73197         0.00238
 C        -7.02315        -5.89918         6.26949         0.00297        -0.00566         0.00331         0.70775         0.49636         3.24495        -0.02751
 C         3.12338        -8.22336         6.06128         0.00138         0.00164        -0.00086         0.26890        -1.71655        -0.09161         0.01746
 C         1.78587        -8.02310         6.41969         0.00085        -0.00145         0.00620        -0.72093        -0.52763        -0.13275         0.00239
 C         0.75968        -8.68122         5.71662         0.00539        -0.00120        -0.00021         0.06053         0.05057         0.71171         0.00140
 C         1.05852        -9.55003         4.65588        -0.00119        -0.01368        -0.00752         1.10124        -0.72714         0.74428         0.01715
 C         2.87317       -10.24001         3.22617         0.00438         0.00214        -0.00266        -2.09350        -2.52618        -2.49166        -0.02775
 C         4.18114        -9.80706         3.14283        -0.00625         0.00354         0.00180         2.81208        -1.07000        -2.76254        -0.02650
 C         4.51091        -9.19133         4.33856         0.00616        -0.00565         0.00393         3.42641         1.03289         1.18145        -0.02713
 C         3.39588        -9.23744         5.16091        -0.00398         0.00060        -0.00106         0.14859         0.78474         3.78321        -0.02771