4
step: 1  T=      476.399K  Ek=     0.246317  Ep=     2.136498  E_gap=    12.751588  Err=       0.0000000000000000  time_stamp= 1672955487.1125
 B        -0.01531         0.00284         0.00204        -0.00144         0.00704         0.00508         2.28074        -0.34937        -0.16488         0.28919
H         1.38582        -0.01445        -0.00658        -0.00778        -0.03592        -0.01633        -4.58242         0.10771         0.05767        -0.10485
H        -0.61597         1.01976        -0.00767        -0.00131        -0.02857        -0.01908         1.13619        -1.54857         0.05306        -0.08862
H        -0.60566        -1.03578        -0.00767         0.02451        -0.01102        -0.01908         1.16549         1.79023         0.05416        -0.09572
4
step: 2  T=      569.720K  Ek=     0.294568  Ep=     2.088248  E_gap=    12.748726  Err=       0.0000000000000000  time_stamp= 1672955487.4829
 B        -0.01572         0.00563         0.00406        -0.00060         0.00686         0.00499         2.39690        -0.70425        -0.32656         0.29006
H         1.37920        -0.02873        -0.01306        -0.02524        -0.03531        -0.01600        -4.52979         0.21519         0.11519        -0.10583
H        -0.61562         1.00714        -0.01526         0.00285        -0.03406        -0.01879         1.03423        -1.30942         0.10341        -0.08507
H        -0.59496        -1.03882        -0.01526         0.02886        -0.00415        -0.01877         1.09866         1.79848         0.10796        -0.09916
4
step: 3  T=      728.562K  Ek=     0.376696  Ep=     2.006120  E_gap=    12.762677  Err=       0.0000000000000000  time_stamp= 1672955487.8338
 B        -0.01579         0.00832         0.00604         0.00028         0.00654         0.00485         2.52249        -1.06271        -0.48262         0.29123
H         1.36563        -0.04269        -0.01938        -0.04240        -0.03431        -0.01546        -4.41697         0.32223         0.17233        -0.10657
H        -0.61369         0.99251        -0.02270         0.00654        -0.03853        -0.01831         0.89389        -1.01358         0.14979        -0.08183
H        -0.58258        -1.03910        -0.02269         0.03290         0.00265        -0.01827         1.00059         1.75405         0.16049        -0.10283
4
step: 4  T=      939.595K  Ek=     0.485808  Ep=     1.897008  E_gap=    12.793529  Err=       0.0000000000000000  time_stamp= 1672955488.1839
 B        -0.01550         0.01087         0.00794         0.00120         0.00610         0.00466         2.64782        -1.41974        -0.63019         0.29272
H         1.34529        -0.05617        -0.02543        -0.05899        -0.03289        -0.01470        -4.23318         0.42817         0.22862        -0.10705
H        -0.61039         0.97633        -0.02991         0.00963        -0.04177        -0.01767         0.71480        -0.66295         0.19086        -0.07892
H        -0.56865        -1.03669        -0.02987         0.03650         0.00918        -0.01757         0.87055         1.65453         0.21071        -0.10675
4
step: 5  T=     1184.696K  Ek=     0.612535  Ep=     1.770280  E_gap=    12.839280  Err=       0.0000000000000000  time_stamp= 1672955488.5339
 B        -0.01483         0.01321         0.00976         0.00217         0.00554         0.00441         2.75538        -1.76567        -0.76594         0.29459
H         1.31845        -0.06900        -0.03114        -0.07473        -0.03107        -0.01373        -3.96113         0.53155         0.28313        -0.10729
H        -0.60599         0.95911        -0.03683         0.01196        -0.04357        -0.01689         0.49845        -0.26292         0.22535        -0.07634
H        -0.55338        -1.03175        -0.03674         0.03955         0.01523        -0.01669         0.70729         1.49704         0.25746        -0.11095
4
step: 6  T=     1441.094K  Ek=     0.745103  Ep=     1.637713  E_gap=    12.896002  Err=       0.0000000000000000  time_stamp= 1672955488.8819
 B        -0.01377         0.01530         0.01147         0.00316         0.00486         0.00412         2.81744        -2.08469        -0.88608         0.29686
H         1.28553        -0.08102        -0.03641        -0.08922        -0.02887        -0.01256        -3.57604         0.62978         0.33427        -0.10731
H        -0.60082         0.94148        -0.04341         0.01340        -0.04376        -0.01598         0.24935         0.17614         0.25237        -0.07413
H        -0.53702        -1.02452        -0.04322         0.04191         0.02055        -0.01563         0.50925         1.27877         0.29944        -0.11543
4
step: 7  T=     1681.532K  Ek=     0.869419  Ep=     1.513396  E_gap=    12.958369  Err=       0.0000000000000000  time_stamp= 1672955489.2453
 B        -0.01230         0.01709         0.01306         0.00417         0.00407         0.00379         2.79364        -2.35400        -0.98637         0.29959
H         1.24710        -0.09208        -0.04118        -0.10196        -0.02630        -0.01120        -3.04463         0.71853         0.37944        -0.10715
H        -0.59527         0.92411        -0.04961         0.01384        -0.04223        -0.01499        -0.02396         0.63758         0.27165        -0.07228
H        -0.51987        -1.01532        -0.04924         0.04344         0.02493        -0.01442         0.27494         0.99789         0.33528        -0.12015
4
step: 8  T=     1874.622K  Ek=     0.969254  Ep=     1.413561  E_gap=    13.020459  Err=       0.0000000000000000  time_stamp= 1672955489.6084
 B        -0.01044         0.01855         0.01450         0.00514         0.00319         0.00342         2.62992        -2.54417        -1.06234         0.30281
H         1.20399        -0.10205        -0.04537        -0.11231        -0.02343        -0.00968        -2.32539         0.79113         0.41478        -0.10690
H        -0.58975         0.90771        -0.05540         0.01321        -0.03893        -0.01393        -0.30827         1.09818         0.28394        -0.07083
H        -0.50228        -1.00458        -0.05475         0.04400         0.02811        -0.01310         0.00374         0.65486         0.36363        -0.12509
4
step: 9  T=     1985.910K  Ek=     1.026795  Ep=     1.356021  E_gap=    13.076714  Err=       0.0000000000000000  time_stamp= 1672955489.9696
 B        -0.00820         0.01964         0.01579         0.00601         0.00227         0.00304         2.26109        -2.62151        -1.10944         0.30654
H         1.15728        -0.11082        -0.04892        -0.11947        -0.02032        -0.00806        -1.37244         0.83800         0.43497        -0.10662
H        -0.58470         0.89298        -0.06075         0.01151        -0.03393        -0.01284        -0.58589         1.52910         0.29112        -0.06975
H        -0.48468        -0.99283        -0.05971         0.04345         0.02987        -0.01167        -0.30276         0.25441         0.38335        -0.13016
4
step: 10  T=     1981.041K  Ek=     1.024277  Ep=     1.358538  E_gap=    13.122819  Err=       0.0000000000000000  time_stamp= 1672955490.3352
 B        -0.00563         0.02036         0.01693         0.00671         0.00135         0.00264         1.62103        -2.55337        -1.12353         0.31074
H         1.10844        -0.11831        -0.05181        -0.12245        -0.01711        -0.00640        -0.14652         0.84683         0.43354        -0.10642
H        -0.58055         0.88058        -0.06567         0.00879        -0.02738        -0.01172        -0.83592         1.89868         0.29613        -0.06905
H        -0.46753        -0.98069        -0.06409         0.04168         0.03001        -0.01019        -0.63860        -0.19214         0.39386        -0.13526
