4
step: 1  T=      319.992K  Ek=     0.165449  Ep=     1.459675  E_gap=    13.373059  Err=       0.0000000000000000  time_stamp= 1672955483.0288
 B         0.00193        -0.00017        -0.00158         0.00482        -0.00042        -0.00393        -0.05771         0.04322         0.13044         0.29140
H         1.20486        -0.00039         0.00565         0.00781        -0.00098         0.01404        -2.27086         0.00368        -0.04388        -0.09203
H        -0.61367         1.02753         0.00565        -0.03191        -0.00959         0.01404         1.18029        -1.78630        -0.04338        -0.09974
H        -0.61190        -1.02529         0.00565        -0.02756         0.01511         0.01404         1.14829         1.73940        -0.04318        -0.09964
4
step: 2  T=      301.652K  Ek=     0.155966  Ep=     1.469200  E_gap=    13.316596  Err=       0.0000000000000000  time_stamp= 1672955483.3778
 B         0.00385        -0.00034        -0.00314         0.00477        -0.00040        -0.00386        -0.21111         0.08411         0.25943         0.29118
H         1.20624        -0.00078         0.01123        -0.00091        -0.00096         0.01379        -2.28372         0.00711        -0.08731        -0.08792
H        -0.62553         1.02233         0.01123        -0.02720        -0.01640         0.01379         1.27900        -1.77108        -0.08646        -0.10174
H        -0.62205        -1.01792         0.01124        -0.02303         0.02165         0.01380         1.21583         1.67986        -0.08567        -0.10152
4
step: 3  T=      318.202K  Ek=     0.164523  Ep=     1.460538  E_gap=    13.269721  Err=       0.0000000000000000  time_stamp= 1672955483.7465
 B         0.00575        -0.00049        -0.00467         0.00467        -0.00036        -0.00374        -0.36426         0.12320         0.38454         0.29138
H         1.20413        -0.00116         0.01668        -0.00956        -0.00092         0.01338        -2.23026         0.01032        -0.12943        -0.08410
H        -0.63543         1.01441         0.01669        -0.02218        -0.02305         0.01338         1.34416        -1.70140        -0.12842        -0.10381
H        -0.63033        -1.00797         0.01669        -0.01831         0.02787         0.01339         1.25036         1.56788        -0.12668        -0.10347
4
step: 4  T=      366.388K  Ek=     0.189437  Ep=     1.435375  E_gap=    13.232642  Err=       0.0000000000000000  time_stamp= 1672955484.1089
 B         0.00759        -0.00063        -0.00614         0.00451        -0.00031        -0.00359        -0.51541         0.16085         0.50329         0.29202
H         1.19860        -0.00152         0.02193        -0.01787        -0.00088         0.01280        -2.10930         0.01332        -0.16937        -0.08059
H        -0.64327         1.00389         0.02194        -0.01697        -0.02933         0.01282         1.37440        -1.57764        -0.16849        -0.10595
H        -0.63670        -0.99562         0.02195        -0.01352         0.03356         0.01283         1.25031         1.40347        -0.16543        -0.10548
4
step: 5  T=      438.584K  Ek=     0.226765  Ep=     1.397668  E_gap=    13.205237  Err=       0.0000000000000000  time_stamp= 1672955484.4736
 B         0.00935        -0.00074        -0.00754         0.00430        -0.00025        -0.00339        -0.66303         0.19708         0.61311         0.29311
H         1.18984        -0.00186         0.02693        -0.02558        -0.00082         0.01209        -1.91867         0.01608        -0.20618        -0.07740
H        -0.64901         0.99095         0.02694        -0.01172        -0.03503         0.01210         1.36787        -1.39950        -0.20585        -0.10814
H        -0.64115        -0.98112         0.02695        -0.00881         0.03852         0.01213         1.21383         1.18634        -0.20109        -0.10757
4
step: 6  T=      523.289K  Ek=     0.270561  Ep=     1.353390  E_gap=    13.187000  Err=       0.0000000000000000  time_stamp= 1672955484.8385
 B         0.01103        -0.00083        -0.00885         0.00404        -0.00017        -0.00315        -0.80567         0.23135         0.71126         0.29466
H         1.17814        -0.00218         0.03160        -0.03242        -0.00075         0.01123        -1.65580         0.01859        -0.23883        -0.07457
H        -0.65265         0.97587         0.03162        -0.00657        -0.03994         0.01125         1.32237        -1.16627        -0.23963        -0.11037
H        -0.64374        -0.96481         0.03165        -0.00430         0.04254         0.01130         1.13910         0.91633        -0.23280        -0.10972
4
step: 7  T=      606.053K  Ek=     0.313354  Ep=     1.310056  E_gap=    13.177024  Err=       0.0000000000000000  time_stamp= 1672955485.2170
 B         0.01258        -0.00088        -0.01005         0.00372        -0.00008        -0.00288        -0.94177         0.26246         0.79490         0.29667
H         1.16390        -0.00246         0.03591        -0.03812        -0.00068         0.01027        -1.31877         0.02077        -0.26626        -0.07212
H        -0.65427         0.95900         0.03593        -0.00168        -0.04385         0.01027         1.23571        -0.87755        -0.26895        -0.11262
H        -0.64459        -0.94709         0.03599        -0.00016         0.04544         0.01036         1.02483         0.59433        -0.25969        -0.11193
4
step: 8  T=      670.965K  Ek=     0.346916  Ep=     1.275962  E_gap=    13.174069  Err=       0.0000000000000000  time_stamp= 1672955485.5853
 B         0.01401        -0.00090        -0.01115         0.00337         0.00001        -0.00258        -1.06939         0.28838         0.86127         0.29915
H         1.14765        -0.00272         0.03982        -0.04238        -0.00060         0.00921        -0.90785         0.02251        -0.28740        -0.07010
H        -0.65399         0.94079         0.03984         0.00281        -0.04655         0.00920         1.10622        -0.53424        -0.29289        -0.11485
H        -0.64387        -0.92846         0.03994         0.00347         0.04700         0.00932         0.87102         0.22335        -0.28098        -0.11420
4
step: 9  T=      702.807K  Ek=     0.363379  Ep=     1.259068  E_gap=    13.176686  Err=       0.0000000000000000  time_stamp= 1672955485.9337
 B         0.01528        -0.00087        -0.01212         0.00296         0.00012        -0.00227        -1.18602         0.30624         0.90811         0.30204
H         1.13000        -0.00294         0.04328        -0.04494        -0.00051         0.00808        -0.42760         0.02369        -0.30137        -0.06850
H        -0.65202         0.92176         0.04329         0.00671        -0.04784         0.00804         0.93373        -0.13985        -0.31066        -0.11705
H        -0.64181        -0.90949         0.04345         0.00644         0.04706         0.00822         0.67989        -0.19008        -0.29608        -0.11649
4
step: 10  T=      689.841K  Ek=     0.356676  Ep=     1.265549  E_gap=    13.183384  Err=       0.0000000000000000  time_stamp= 1672955486.3024
 B         0.01638        -0.00080        -0.01297         0.00252         0.00023        -0.00194        -1.28847         0.31242         0.93413         0.30526
H         1.11170        -0.00313         0.04628        -0.04554        -0.00042         0.00691         0.11084         0.02412        -0.30771        -0.06734
H        -0.64862         0.90251         0.04627         0.00988        -0.04754         0.00683         0.72061         0.29800        -0.32168        -0.11915
H        -0.63871        -0.89081         0.04651         0.00862         0.04549         0.00707         0.45702        -0.63454        -0.30474        -0.11876
