4
step: 1  T=      400.000K  Ek=     0.206816  Ep=    -0.177081  E_gap=    10.917310  Err=       0.0000000000000000  time_stamp= 1669604868.8472
 O         0.69086         0.00045        -0.00039        -0.00843         0.00095        -0.00082       -12.13863        -0.04232         0.04102        -0.31800
 C        -0.70103        -0.00009         0.00175         0.01121        -0.00023         0.00366        10.24428        -0.25708        -0.11936         0.10256
H        -1.29908         0.94153        -0.00730         0.01523         0.00266        -0.01526         0.82326        -0.33705         0.03791         0.10699
H        -1.31365        -0.94759        -0.00730        -0.01495        -0.01490        -0.01525         1.07109         0.63645         0.04042         0.10845
4
step: 2  T=      400.000K  Ek=     0.206816  Ep=    -0.270170  E_gap=    10.949598  Err=       0.0000000000000000  time_stamp= 1669604869.2195
 O         0.68691         0.00083        -0.00072        -0.00940         0.00077        -0.00067       -11.80947        -0.07723         0.07426        -0.31587
 C        -0.69589        -0.00020         0.00320         0.01198        -0.00029         0.00299         9.79562        -0.44522        -0.22025         0.10264
H        -1.29236         0.94233        -0.01337         0.01521         0.00113        -0.01250         0.78644        -0.34148         0.06901         0.10532
H        -1.31881        -0.95306        -0.01337        -0.00876        -0.00999        -0.01248         1.22741         0.86394         0.07698         0.10790
4
step: 3  T=      400.000K  Ek=     0.206816  Ep=    -0.369871  E_gap=    10.984869  Err=       0.0000000000000000  time_stamp= 1669604869.5928
 O         0.68258         0.00113        -0.00099        -0.01003         0.00062        -0.00053       -11.41416        -0.10642         0.10122        -0.31348
 C        -0.69046        -0.00035         0.00439         0.01237        -0.00037         0.00239         9.34240        -0.57147        -0.30342         0.10324
H        -1.28567         0.94252        -0.01832         0.01491        -0.00013        -0.01002         0.74390        -0.33134         0.09401         0.10340
H        -1.32137        -0.95640        -0.01830        -0.00318        -0.00527        -0.00996         1.32786         1.00923         0.10819         0.10683
4
step: 4  T=      400.000K  Ek=     0.206816  Ep=    -0.473425  E_gap=    11.022195  Err=       0.0000000000000000  time_stamp= 1669604869.9659
 O         0.67801         0.00138        -0.00120        -0.01039         0.00048        -0.00041       -10.95899        -0.13043         0.12249        -0.31091
 C        -0.68491        -0.00053         0.00532         0.01249        -0.00046         0.00186         8.88243        -0.64457        -0.36933         0.10430
H        -1.27914         0.94222        -0.02225         0.01443        -0.00111        -0.00786         0.69724        -0.30923         0.11355         0.10127
H        -1.32163        -0.95773        -0.02220         0.00164        -0.00103        -0.00776         1.37932         1.08424         0.13329         0.10534
4
step: 5  T=      400.000K  Ek=     0.206816  Ep=    -0.578057  E_gap=    11.060856  Err=       0.0000000000000000  time_stamp= 1669604870.3399
 O         0.67333         0.00156        -0.00136        -0.01058         0.00036        -0.00031       -10.45007        -0.14976         0.13874        -0.30823
 C        -0.67935        -0.00076         0.00604         0.01245        -0.00055         0.00142         8.41315        -0.67313        -0.41945         0.10576
H        -1.27284         0.94154        -0.02531         0.01386        -0.00182        -0.00603         0.64789        -0.27799         0.12838         0.09896
H        -1.31992        -0.95731        -0.02521         0.00566         0.00257        -0.00588         1.38902         1.10088         0.15234         0.10351
4
step: 6  T=      400.000K  Ek=     0.206816  Ep=    -0.681231  E_gap=    11.100310  Err=       0.0000000000000000  time_stamp= 1669604870.7088
 O         0.66859         0.00170        -0.00147        -0.01065         0.00027        -0.00023        -9.89275        -0.16486         0.15069        -0.30548
 C        -0.67382        -0.00102         0.00658         0.01232        -0.00062         0.00104         7.93203        -0.66472        -0.45579         0.10756
H        -1.26680         0.94060        -0.02762         0.01328        -0.00230        -0.00451         0.59707        -0.24031         0.13927         0.09651
H        -1.31659        -0.95544        -0.02744         0.00893         0.00550        -0.00431         1.36366         1.06988         0.16584         0.10141
4
step: 7  T=      400.000K  Ek=     0.206816  Ep=    -0.780795  E_gap=    11.140164  Err=       0.0000000000000000  time_stamp= 1669604871.0776
 O         0.66386         0.00180        -0.00156        -0.01066         0.00019        -0.00016        -9.29128        -0.17611         0.15901        -0.30271
 C        -0.66839        -0.00131         0.00697         0.01216        -0.00068         0.00073         7.43647        -0.62575        -0.48044         0.10965
H        -1.26103         0.93949        -0.02932         0.01271        -0.00258        -0.00325         0.54571        -0.19859         0.14694         0.09394
H        -1.31197        -0.95242        -0.02904         0.01155         0.00778        -0.00301         1.30910         1.00046         0.17449         0.09912
4
step: 8  T=      400.000K  Ek=     0.206816  Ep=    -0.875016  E_gap=    11.180135  Err=       0.0000000000000000  time_stamp= 1669604871.4508
 O         0.65915         0.00187        -0.00161        -0.01063         0.00012        -0.00010        -8.64873        -0.18386         0.16431        -0.29992
 C        -0.66304        -0.00163         0.00723         0.01200        -0.00073         0.00048         6.92382        -0.56168        -0.49535         0.11198
H        -1.25552         0.93831        -0.03051         0.01220        -0.00270        -0.00222         0.49453        -0.15488         0.15201         0.09128
H        -1.30635        -0.94854        -0.03010         0.01361         0.00947        -0.00193         1.23039         0.90042         0.17903         0.09667
4
step: 9  T=      400.000K  Ek=     0.206816  Ep=    -0.962544  E_gap=    11.220026  Err=       0.0000000000000000  time_stamp= 1669604871.8237
 O         0.65447         0.00190        -0.00164        -0.01060         0.00006        -0.00005        -7.96715        -0.18840         0.16709        -0.29715
 C        -0.65780        -0.00195         0.00739         0.01186        -0.00075         0.00027         6.39126        -0.47725        -0.50225         0.11451
H        -1.25027         0.93711        -0.03128         0.01174        -0.00269        -0.00137         0.44402        -0.11084         0.15498         0.08852
H        -1.29997        -0.94406        -0.03074         0.01521         0.01064        -0.00104         1.13187         0.77649         0.18018         0.09411
4
step: 10  T=      400.000K  Ek=     0.206816  Ep=    -1.042363  E_gap=    11.259695  Err=       0.0000000000000000  time_stamp= 1669604872.1973
 O         0.64985         0.00192        -0.00165        -0.01057         0.00001        -0.00001        -7.24774        -0.18997         0.16776        -0.29438
 C        -0.65264        -0.00228         0.00747         0.01175        -0.00075         0.00009         5.83580        -0.37673        -0.50260         0.11722
H        -1.24523         0.93595        -0.03171         0.01134        -0.00258        -0.00066         0.39454        -0.06785         0.15626         0.08570
H        -1.29302        -0.93921        -0.03102         0.01643         0.01134        -0.00030         1.01740         0.63454         0.17858         0.09145
