4
step: 1  T=      400.000K  Ek=     0.206816  Ep=     2.067105  E_gap=    12.789009  Err=       0.0000000000000000  time_stamp= 1669604868.8501
 B        -0.01523        -0.00107         0.00283        -0.00092        -0.00201         0.00532         2.34830         0.01272        -0.22806         0.29000
H         1.37671         0.01133        -0.00911        -0.02298         0.02126        -0.01709        -4.51196        -0.08588         0.08027        -0.10524
H        -0.59904         1.02220        -0.01063         0.03080        -0.01691        -0.01997         1.01666        -1.51677         0.07336        -0.09452
H        -0.61437        -1.02210        -0.01063         0.00203         0.01721        -0.01996         1.14700         1.58993         0.07443        -0.09024
4
step: 2  T=      400.000K  Ek=     0.206816  Ep=     1.977663  E_gap=    12.820646  Err=       0.0000000000000000  time_stamp= 1669604869.2224
 B        -0.01543        -0.00187         0.00494        -0.00005        -0.00168         0.00435         2.48245         0.01627        -0.39585         0.29127
H         1.36406         0.01977        -0.01589        -0.03349         0.01740        -0.01393        -4.40635        -0.15144         0.14127        -0.10635
H        -0.58594         1.01428        -0.01856         0.02874        -0.01865        -0.01638         0.84704        -1.30148         0.12555        -0.09626
H        -0.61268        -1.01400        -0.01856         0.00526         0.01923        -0.01637         1.07686         1.43665         0.12904        -0.08866
4
step: 3  T=      400.000K  Ek=     0.206816  Ep=     1.875273  E_gap=    12.868713  Err=       0.0000000000000000  time_stamp= 1669604869.5956
 B        -0.01527        -0.00254         0.00665         0.00070        -0.00137         0.00343         2.59152         0.01548        -0.52980         0.29265
H         1.34729         0.02661        -0.02135        -0.04099         0.01368        -0.01088        -4.25497        -0.20641         0.19171        -0.10713
H        -0.57379         1.00582        -0.02502         0.02591        -0.01899        -0.01295         0.67558        -1.06980         0.16569        -0.09796
H        -0.60976        -1.00521        -0.02501         0.00754         0.01997        -0.01293         0.98787         1.26073         0.17239        -0.08756
4
step: 4  T=      400.000K  Ek=     0.206816  Ep=     1.768589  E_gap=    12.930130  Err=       0.0000000000000000  time_stamp= 1669604869.9688
 B        -0.01480        -0.00308         0.00799         0.00133        -0.00111         0.00262         2.66623         0.01354        -0.63152         0.29410
H         1.32764         0.03192        -0.02556        -0.04627         0.01041        -0.00819        -4.06039        -0.25081         0.23164        -0.10763
H        -0.56291         0.99740        -0.03007         0.02291        -0.01840        -0.00997         0.50851        -0.83423         0.19487        -0.09961
H        -0.60598        -0.99625        -0.03005         0.00905         0.01987        -0.00992         0.88564         1.07151         0.20501        -0.08686
4
step: 5  T=      400.000K  Ek=     0.206816  Ep=     1.663527  E_gap=    13.001330  Err=       0.0000000000000000  time_stamp= 1669604870.3428
 B        -0.01408        -0.00353         0.00899         0.00187        -0.00090         0.00194         2.69890         0.01344        -0.70513         0.29562
H         1.30602         0.03590        -0.02866        -0.05002         0.00765        -0.00590        -3.82321        -0.28544         0.26186        -0.10788
H        -0.55336         0.98940        -0.03391         0.02001        -0.01724        -0.00748         0.34960        -0.60409         0.21499        -0.10121
H        -0.60169        -0.98749        -0.03386         0.00997         0.01923        -0.00741         0.77472         0.87610         0.22828        -0.08653
4
step: 6  T=      400.000K  Ek=     0.206816  Ep=     1.563993  E_gap=    13.079006  Err=       0.0000000000000000  time_stamp= 1669604870.7114
 B        -0.01314        -0.00388         0.00972         0.00233        -0.00073         0.00138         2.68262         0.01753        -0.75525         0.29719
H         1.28308         0.03874        -0.03082        -0.05274         0.00535        -0.00400        -3.54243        -0.31125         0.28338        -0.10793
H        -0.54509         0.98204        -0.03674         0.01733        -0.01574        -0.00546         0.20110        -0.38622         0.22802        -0.10277
H        -0.59711        -0.97912        -0.03665         0.01045         0.01827        -0.00535         0.65870         0.67994         0.24385        -0.08650
4
step: 7  T=      400.000K  Ek=     0.206816  Ep=     1.472626  E_gap=    13.160299  Err=       0.0000000000000000  time_stamp= 1669604871.0804
 B        -0.01201        -0.00418         0.01021         0.00273        -0.00061         0.00092         2.61090         0.02738        -0.78605         0.29883
H         1.25928         0.04064        -0.03220        -0.05475         0.00344        -0.00241        -3.21579        -0.32910         0.29715        -0.10782
H        -0.53800         0.97545        -0.03874         0.01487        -0.01404        -0.00381         0.06447        -0.18561         0.23568        -0.10429
H        -0.59242        -0.97129        -0.03860         0.01063         0.01709        -0.00367         0.54042         0.48733         0.25323        -0.08671
4
step: 8  T=      400.000K  Ek=     0.206816  Ep=     1.391334  E_gap=    13.242738  Err=       0.0000000000000000  time_stamp= 1669604871.4536
 B        -0.01074        -0.00442         0.01053         0.00308        -0.00050         0.00054         2.47743         0.04378        -0.80105         0.30052
H         1.23491         0.04176        -0.03293        -0.05627         0.00183        -0.00106        -2.84027        -0.33966         0.30397        -0.10761
H        -0.53200         0.96970        -0.04009         0.01262        -0.01222        -0.00246        -0.05935        -0.00588         0.23936        -0.10577
H        -0.58776        -0.96408        -0.03988         0.01058         0.01578        -0.00228         0.42220         0.30176         0.25772        -0.08714
4
step: 9  T=      400.000K  Ek=     0.206816  Ep=     1.321636  E_gap=    13.324113  Err=       0.0000000000000000  time_stamp= 1669604871.8266
 B        -0.00933        -0.00462         0.01069         0.00340        -0.00042         0.00022         2.27614         0.06688        -0.80301         0.30229
H         1.21023         0.04223        -0.03313        -0.05743         0.00045         0.00009        -2.41243        -0.34343         0.30451        -0.10732
H        -0.52700         0.96481        -0.04089         0.01055        -0.01034        -0.00134        -0.16967         0.15040         0.24013        -0.10722
H        -0.58320        -0.95754        -0.04059         0.01036         0.01437        -0.00112         0.30596         0.12614         0.25837        -0.08775
4
step: 10  T=      400.000K  Ek=     0.206816  Ep=     1.264858  E_gap=    13.402351  Err=       0.0000000000000000  time_stamp= 1669604872.2002
 B        -0.00780        -0.00478         0.01072         0.00370        -0.00035        -0.00006         2.00143         0.09630        -0.79408         0.30414
H         1.18541         0.04215        -0.03286        -0.05829        -0.00076         0.00110        -1.92876        -0.34074         0.29930        -0.10699
H        -0.52291         0.96079        -0.04124         0.00861        -0.00843        -0.00037        -0.26599         0.28154         0.23875        -0.10863
H        -0.57882        -0.95170        -0.04084         0.01004         0.01289        -0.00012         0.19332        -0.03709         0.25603        -0.08852
