4
step: 1  T=      251.198K  Ek=     0.129880  Ep=     1.433589  E_gap=    13.400567  Err=       0.0000000000000000  time_stamp= 1669605419.6040
 B        -0.00060         0.00190         0.00126        -0.00150         0.00441         0.00331         1.11693        -2.73683        -0.83812         0.29225
H         1.20507        -0.00134        -0.00403         0.00846        -0.00204        -0.01183        -2.10914         0.67469        -0.66124        -0.09657
H        -0.59442         1.01693        -0.00502         0.01579        -0.03488        -0.01184         0.98950        -1.23952        -0.41725        -0.09647
H        -0.60417        -1.03597        -0.00451        -0.00821        -0.01039        -0.01182         1.30633         2.27192        -0.18629        -0.09921
4
step: 2  T=      259.030K  Ek=     0.133929  Ep=     1.421592  E_gap=    13.376517  Err=       0.0000000000000000  time_stamp= 1669605419.9589
 B        -0.00120         0.00353         0.00264        -0.00138         0.00392         0.00318         0.72560        -0.73391        -0.63755         0.29307
H         1.20677        -0.00158        -0.00915        -0.00022        -0.00129        -0.01137        -2.31732         0.26879         0.46268        -0.09697
H        -0.58741         1.00209        -0.00996         0.01863        -0.03896        -0.01138         0.08373        -1.23465         0.69235        -0.09564
H        -0.60653        -1.03833        -0.00926        -0.00359        -0.00174        -0.01136         1.75194         1.87157         0.64603        -0.10046
4
step: 3  T=      288.585K  Ek=     0.149210  Ep=     1.398576  E_gap=    13.366541  Err=       0.0000000000000000  time_stamp= 1669605420.3133
 B        -0.00171         0.00503         0.00381        -0.00117         0.00363         0.00285        -1.39012         1.24085        -0.39680         0.29448
H         1.20489        -0.00190        -0.01340        -0.00857        -0.00200        -0.01019        -2.20097         0.34369         0.31836        -0.09747
H        -0.57991         0.98555        -0.01404         0.02016        -0.04228        -0.01021        -0.11425        -0.63779        -0.08598        -0.09509
H        -0.60663        -1.03760        -0.01337         0.00098         0.00532        -0.01020         1.13696         1.61803         0.06495        -0.10192
4
step: 4  T=      319.458K  Ek=     0.165173  Ep=     1.371040  E_gap=    13.367775  Err=       0.0000000000000000  time_stamp= 1669605420.6843
 B        -0.00214         0.00643         0.00492        -0.00089         0.00318         0.00271         0.43012        -2.10114        -0.39237         0.29638
H         1.19992        -0.00258        -0.01723        -0.01652        -0.00305        -0.00966        -2.18109        -0.22632        -0.43386        -0.09806
H        -0.57179         0.96800        -0.01819         0.02030        -0.04268        -0.00973        -0.47954         0.36964         0.39204        -0.09478
H        -0.60523        -1.03438        -0.01740         0.00580         0.01163        -0.00967         1.57687         1.56964         0.57918        -0.10354
4
step: 5  T=      370.461K  Ek=     0.191543  Ep=     1.340876  E_gap=    13.381648  Err=       0.0000000000000000  time_stamp= 1669605421.0564
 B        -0.00243         0.00757         0.00597        -0.00055         0.00240         0.00264         3.32476        -4.12311        -2.20927         0.29867
H         1.19168        -0.00395        -0.02144        -0.02583        -0.00317        -0.00934        -2.49743         0.41160        -0.74377        -0.09873
H        -0.56400         0.95124        -0.02179         0.02062        -0.04112        -0.00959         0.43022         0.10951        -0.56603        -0.09468
H        -0.60166        -1.02850        -0.02083         0.01115         0.01854        -0.00934         1.72283         1.61220         0.65078        -0.10525
4
step: 6  T=      420.703K  Ek=     0.217520  Ep=     1.308688  E_gap=    13.412695  Err=       0.0000000000000000  time_stamp= 1669605421.4079
 B        -0.00258         0.00835         0.00703        -0.00022         0.00143         0.00252         0.92418        -1.55058         0.82936         0.30145
H         1.17927        -0.00479        -0.02558        -0.03354        -0.00284        -0.00886        -1.31578        -0.07326        -0.07968        -0.09960
H        -0.55559         0.93498        -0.02590         0.01992        -0.03760        -0.00935        -0.77887         1.62443         0.58215        -0.09505
H        -0.59605        -1.01974        -0.02391         0.01594         0.02515        -0.00885         1.13402         1.68305         0.63811        -0.10679
4
step: 7  T=      453.227K  Ek=     0.234336  Ep=     1.281031  E_gap=    13.454897  Err=       0.0000000000000000  time_stamp= 1669605421.7620
 B        -0.00259         0.00872         0.00799         0.00035         0.00044         0.00209         1.64583        -3.28383        -3.21129         0.30437
H         1.16485        -0.00608        -0.02930        -0.03909        -0.00203        -0.00721        -1.65140         0.43964        -0.12503        -0.10051
H        -0.54822         0.92109        -0.02930         0.01718        -0.03381        -0.00795        -0.67333         0.46110         0.14847        -0.09568
H        -0.58880        -1.00849        -0.02707         0.01812         0.03114        -0.00727        -0.18464         1.52641         1.31486        -0.10817
4
step: 8  T=      500.451K  Ek=     0.258753  Ep=     1.261782  E_gap=    13.511036  Err=       0.0000000000000000  time_stamp= 1669605422.1140
 B        -0.00229         0.00870         0.00870         0.00081        -0.00057         0.00161        -1.05064        -4.63779        -0.65409         0.30756
H         1.14800        -0.00651        -0.03217        -0.04405        -0.00144        -0.00540        -1.10729        -0.13016         0.60279        -0.10111
H        -0.54181         0.90797        -0.03226         0.01451        -0.02940        -0.00638        -1.12637         1.49452        -0.12119        -0.09694
H        -0.58165        -0.99481        -0.02887         0.02084         0.03693        -0.00551         1.61862         1.09634         0.64899        -0.10951
4
step: 9  T=      546.277K  Ek=     0.282447  Ep=     1.251477  E_gap=    13.576718  Err=       0.0000000000000000  time_stamp= 1669605422.4833
 B        -0.00194         0.00827         0.00927         0.00104        -0.00162         0.00126         1.29020        -1.69249        -2.04062         0.31088
H         1.12962        -0.00706        -0.03390        -0.04787        -0.00185        -0.00408        -0.91891         0.79491         0.43830        -0.10190
H        -0.53678         0.89748        -0.03494         0.01157        -0.02235        -0.00529        -1.24325         1.67547        -0.25036        -0.09834
H        -0.57198        -0.97908        -0.03060         0.02517         0.04156        -0.00410         1.37869         0.74204         0.59891        -0.11063
4
step: 10  T=      536.477K  Ek=     0.277380  Ep=     1.254335  E_gap=    13.650170  Err=       0.0000000000000000  time_stamp= 1669605422.8358
 B        -0.00147         0.00741         0.00970         0.00138        -0.00260         0.00076         2.89977        -2.87294        -3.20124         0.31429
H         1.10974        -0.00728        -0.03512        -0.04857        -0.00162        -0.00222         0.81325        -0.14238         0.75796        -0.10276
H        -0.53313         0.88974        -0.03717         0.00721        -0.01384        -0.00369        -1.18328         2.61497         0.24811        -0.10000
H        -0.56089        -0.96197        -0.03171         0.02657         0.04333        -0.00222        -0.02224        -0.01480         0.37370        -0.11153
