4
step: 1  T=      356.372K  Ek=     0.184259  Ep=    -0.128622  E_gap=    10.904071  Err=       0.0000000000000000  time_stamp= 1669604864.6677
 O         0.69278         0.00022         0.00019        -0.00526         0.00055         0.00048       -12.26817        -0.01420        -0.02011        -0.31942
 C        -0.70495        -0.00195        -0.00085         0.00363        -0.00477        -0.00212        10.88177         0.64384         0.05556         0.10467
H        -1.30186         0.94491         0.00354         0.01131         0.01148         0.00882         0.88841        -0.40922        -0.01894         0.10722
H        -1.29450        -0.92518         0.00354         0.02898         0.03664         0.00883         0.49799        -0.22042        -0.01650         0.10753
4
step: 2  T=      459.818K  Ek=     0.237744  Ep=    -0.182107  E_gap=    10.929147  Err=       0.0000000000000000  time_stamp= 1669604865.0399
 O         0.69008         0.00044         0.00038        -0.00820         0.00055         0.00047       -12.03968        -0.02660        -0.03999        -0.31842
 C        -0.70280        -0.00382        -0.00169         0.00715        -0.00446        -0.00209        11.01763         1.29966         0.10685         0.10664
H        -1.29666         0.94919         0.00706         0.01475         0.00978         0.00871         0.90672        -0.48365        -0.03847         0.10559
H        -1.28252        -0.91069         0.00706         0.03016         0.03470         0.00874         0.11533        -0.78941        -0.02840         0.10619
4
step: 3  T=      597.458K  Ek=     0.308910  Ep=    -0.253273  E_gap=    10.964018  Err=       0.0000000000000000  time_stamp= 1669604865.4104
 O         0.68622         0.00066         0.00057        -0.01106         0.00054         0.00046       -11.69965        -0.03745        -0.05988        -0.31682
 C        -0.69923        -0.00552        -0.00252         0.01070        -0.00394        -0.00205        11.06478         1.92419         0.15373         0.10892
H        -1.29007         0.95273         0.01052         0.01821         0.00782         0.00853         0.90545        -0.53641        -0.05830         0.10348
H        -1.27037        -0.89741         0.01054         0.02985         0.03060         0.00862        -0.27059        -1.35034        -0.03555         0.10443
4
step: 4  T=      773.366K  Ek=     0.399861  Ep=    -0.344224  E_gap=    11.008479  Err=       0.0000000000000000  time_stamp= 1669604865.7833
 O         0.68124         0.00087         0.00075        -0.01382         0.00053         0.00044       -11.22996        -0.04690        -0.07960        -0.31463
 C        -0.69424        -0.00697        -0.00333         0.01423        -0.00324        -0.00199        10.97519         2.46445         0.19632         0.11141
H        -1.28209         0.95544         0.01388         0.02163         0.00571         0.00826         0.88275        -0.56577        -0.07800         0.10088
H        -1.25864        -0.88621         0.01396         0.02813         0.02447         0.00848        -0.62798        -1.85179        -0.03872         0.10234
4
step: 5  T=      992.967K  Ek=     0.513404  Ep=    -0.457767  E_gap=    11.062134  Err=       0.0000000000000000  time_stamp= 1669604866.1571
 O         0.67517         0.00108         0.00092        -0.01645         0.00052         0.00042       -10.60640        -0.05550        -0.09885        -0.31183
 C        -0.68785        -0.00811        -0.00411         0.01771        -0.00238        -0.00192        10.69110         2.86541         0.23572         0.11405
H        -1.27276         0.95730         0.01713         0.02492         0.00353         0.00793         0.83722        -0.57103        -0.09709         0.09779
H        -1.24787        -0.87784         0.01732         0.02516         0.01663         0.00833        -0.92191        -2.23889        -0.03978         0.10000
4
step: 6  T=     1258.542K  Ek=     0.650717  Ep=    -0.595080  E_gap=    11.124314  Err=       0.0000000000000000  time_stamp= 1669604866.5335
 O         0.66807         0.00128         0.00108        -0.01892         0.00050         0.00039        -9.79891        -0.06415        -0.11724        -0.30842
 C        -0.68007        -0.00887        -0.00487         0.02107        -0.00142        -0.00184        10.15190         3.08050         0.27384         0.11679
H        -1.26215         0.95827         0.02022         0.02800         0.00138         0.00752         0.76781        -0.55231        -0.11510         0.09421
H        -1.23851        -0.87290         0.02062         0.02125         0.00763         0.00817        -1.12080        -2.46404        -0.04151         0.09742
4
step: 7  T=     1563.945K  Ek=     0.808622  Ep=    -0.752985  E_gap=    11.193998  Err=       0.0000000000000000  time_stamp= 1669604866.9076
 O         0.66003         0.00148         0.00123        -0.02117         0.00049         0.00036        -8.77251        -0.07412        -0.13420        -0.30436
 C        -0.67100        -0.00925        -0.00559         0.02420        -0.00043        -0.00175         9.30252         3.08269         0.31266         0.11968
H        -1.25036         0.95840         0.02314         0.03077        -0.00065         0.00705         0.67378        -0.51028        -0.13157         0.09011
H        -1.23087        -0.87173         0.02386         0.01681        -0.00187         0.00801        -1.20380        -2.49829        -0.04689         0.09457
4
step: 8  T=     1890.804K  Ek=     0.977622  Ep=    -0.921985  E_gap=    11.269760  Err=       0.0000000000000000  time_stamp= 1669604867.2815
 O         0.65115         0.00167         0.00137        -0.02314         0.00047         0.00033        -7.48963        -0.08693        -0.14908        -0.29963
 C        -0.66072        -0.00922        -0.00626         0.02701         0.00052        -0.00164         8.10104         2.87211         0.35347         0.12283
H        -1.23754         0.95775         0.02586         0.03314        -0.00249         0.00652         0.55474        -0.44609        -0.14610         0.08546
H        -1.22507        -0.87439         0.02702         0.01228        -0.01114         0.00781        -1.16616        -2.33909        -0.05829         0.09134
4
step: 9  T=     2208.269K  Ek=     1.141763  Ep=    -1.086126  E_gap=    11.349767  Err=       0.0000000000000000  time_stamp= 1669604867.6546
 O         0.64153         0.00185         0.00150        -0.02477         0.00044         0.00029        -5.91431        -0.10426        -0.16106        -0.29422
 C        -0.64939        -0.00883        -0.00690         0.02938         0.00138        -0.00152         6.52408         2.47678         0.39614         0.12641
H        -1.22385         0.95641         0.02836         0.03501        -0.00403         0.00594         0.41081        -0.36135        -0.15835         0.08025
H        -1.22105        -0.88064         0.03010         0.00809        -0.01948         0.00756        -1.02058        -2.01117        -0.07673         0.08756
4
step: 10  T=     2476.926K  Ek=     1.280670  Ep=    -1.225033  E_gap=    11.431852  Err=       0.0000000000000000  time_stamp= 1669604868.0287
 O         0.63133         0.00203         0.00160        -0.02598         0.00042         0.00025        -4.01851        -0.12780        -0.16932        -0.28812
 C        -0.63722        -0.00812        -0.00748         0.03118         0.00209        -0.00139         4.56929         1.94612         0.43896         0.13065
H        -1.20953         0.95452         0.03062         0.03628        -0.00522         0.00532         0.24294        -0.25829        -0.16808         0.07445
H        -1.21859        -0.88997         0.03307         0.00462        -0.02633         0.00722        -0.79373        -1.56003        -0.10156         0.08302
