4
step: 1  T=      377.922K  Ek=     0.195401  Ep=     1.466852  E_gap=    13.373361  Err=       0.0000679536444716  time_stamp= 1669609037.3067
 B        -0.00094         0.00227         0.00069        -0.00227         0.00561         0.00171         0.38162        -0.30277        -0.05827         0.29184
H         1.21666        -0.01142        -0.00246         0.03684        -0.02839        -0.00612        -2.51033         0.08634         0.01978        -0.09627
H        -0.60622         1.01955        -0.00246        -0.01354        -0.02915        -0.00612         1.04991        -1.58373         0.01913        -0.09778
H        -0.60041        -1.03242        -0.00246         0.00105        -0.00261        -0.00612         1.07880         1.80016         0.01936        -0.09778
4
step: 2  T=      338.429K  Ek=     0.174981  Ep=     1.487071  E_gap=    13.310727  Err=       0.0000846937118505  time_stamp= 1669609037.6486
 B        -0.00182         0.00449         0.00137        -0.00209         0.00545         0.00168         0.64449        -0.58221        -0.11335         0.29075
H         1.22947        -0.02272        -0.00490         0.02681        -0.02792        -0.00601        -2.73158         0.16390         0.03913        -0.09548
H        -0.61083         1.00668        -0.00490        -0.00959        -0.03480        -0.00602         1.01036        -1.36839         0.03656        -0.09370
H        -0.59916        -1.03209        -0.00490         0.00518         0.00426        -0.00601         1.07673         1.78669         0.03765        -0.10157
4
step: 3  T=      328.681K  Ek=     0.169941  Ep=     1.492090  E_gap=    13.259654  Err=       0.0002312135265278  time_stamp= 1669609037.9693
 B        -0.00261         0.00663         0.00203        -0.00181         0.00520         0.00163         0.89704        -0.84896        -0.16554         0.29077
H         1.23811        -0.03376        -0.00727         0.01608        -0.02715        -0.00582        -2.87144         0.23610         0.05833        -0.09447
H        -0.61389         0.99171        -0.00728        -0.00588        -0.03953        -0.00585         0.92993        -1.10122         0.05224        -0.08767
H        -0.59626        -1.02902        -0.00727         0.00924         0.01096        -0.00584         1.04447         1.71408         0.05497        -0.10863
4
step: 4  T=      347.266K  Ek=     0.179551  Ep=     1.482432  E_gap=    13.228858  Err=       0.0002216782423222  time_stamp= 1669609038.3026
 B        -0.00327         0.00864         0.00268        -0.00145         0.00484         0.00156         1.15165        -1.12508        -0.21612         0.29326
H         1.24234        -0.04443        -0.00956         0.00494        -0.02610        -0.00556        -2.94487         0.31135         0.07779        -0.09398
H        -0.61553         0.97506        -0.00958        -0.00254        -0.04313        -0.00562         0.81128        -0.78000         0.06657        -0.08409
H        -0.59177        -1.02332        -0.00957         0.01312         0.01729        -0.00559         0.98194         1.59373         0.07175        -0.11519
4
step: 5  T=      388.905K  Ek=     0.201080  Ep=     1.460582  E_gap=    13.218757  Err=       0.0002711839258532  time_stamp= 1669609038.6401
 B        -0.00376         0.01050         0.00329        -0.00099         0.00439         0.00148         1.40695        -1.41110        -0.26389         0.29619
H         1.24206        -0.05464        -0.01172        -0.00635        -0.02476        -0.00523        -2.95158         0.39145         0.09695        -0.09391
H        -0.61593         0.95721        -0.01177         0.00027        -0.04540        -0.00534         0.65767        -0.40484         0.07924        -0.08439
H        -0.58577        -1.01518        -0.01175         0.01670         0.02307        -0.00529         0.88697         1.42449         0.08770        -0.11789
4
step: 6  T=      445.669K  Ek=     0.230428  Ep=     1.430973  E_gap=    13.222125  Err=       0.0002237426975877  time_stamp= 1669609038.9828
 B        -0.00406         0.01216         0.00386        -0.00044         0.00384         0.00138         1.65197        -1.67907        -0.30554         0.29708
H         1.23726        -0.06424        -0.01374        -0.01751        -0.02311        -0.00482        -2.88081         0.46898         0.11455        -0.09366
H        -0.61531         0.93874        -0.01385         0.00243        -0.04615        -0.00502         0.47135         0.01542         0.08924        -0.08588
H        -0.57841        -1.00486        -0.01380         0.01984         0.02809        -0.00493         0.75750         1.19467         0.10175        -0.11755
4
step: 7  T=      507.968K  Ek=     0.262640  Ep=     1.398335  E_gap=    13.233077  Err=       0.0001463728437900  time_stamp= 1669609039.3299
 B        -0.00412         0.01357         0.00439         0.00019         0.00320         0.00126         1.87658        -1.89414        -0.33886         0.29675
H         1.22805        -0.07312        -0.01558        -0.02825        -0.02119        -0.00435        -2.72552         0.53471         0.12981        -0.09300
H        -0.61398         0.92029        -0.01579         0.00382        -0.04523        -0.00466         0.25530         0.46244         0.09596        -0.08512
H        -0.56989        -0.99272        -0.01569         0.02243         0.03209        -0.00451         0.59364         0.89699         0.11308        -0.11863
4
step: 8  T=      565.867K  Ek=     0.292576  Ep=     1.367954  E_gap=    13.253243  Err=       0.0002381625195252  time_stamp= 1669609039.6727
 B        -0.00391         0.01472         0.00487         0.00089         0.00250         0.00114         2.07233        -2.04086        -0.36479         0.29870
H         1.21467        -0.08119        -0.01722        -0.03823        -0.01904        -0.00383        -2.48779         0.58709         0.14302        -0.09236
H        -0.61226         0.90255        -0.01758         0.00435        -0.04259        -0.00429         0.01784         0.91432         0.10006        -0.08212
H        -0.56047        -0.97919        -0.01741         0.02433         0.03484        -0.00406         0.39763         0.53945         0.12171        -0.12422
4
step: 9  T=      610.648K  Ek=     0.315730  Ep=     1.344433  E_gap=    13.285674  Err=       0.0002729253569958  time_stamp= 1669609040.0174
 B        -0.00341         0.01557         0.00530         0.00166         0.00176         0.00100         2.21954        -2.11884        -0.38511         0.30413
H         1.19747        -0.08835        -0.01864        -0.04714        -0.01671        -0.00326        -2.16768         0.63139         0.15451        -0.09207
H        -0.61051         0.88621        -0.01922         0.00395        -0.03826        -0.00390        -0.22396         1.34925         0.10272        -0.07979
H        -0.55043        -0.96484        -0.01894         0.02542         0.03614        -0.00359         0.17211         0.13819         0.12788        -0.13227
4
step: 10  T=      635.742K  Ek=     0.328704  Ep=     1.331349  E_gap=    13.326356  Err=       0.0002515127271940  time_stamp= 1669609040.3683
 B        -0.00258         0.01612         0.00567         0.00246         0.00100         0.00086         2.27940        -2.12012        -0.39935         0.30982
H         1.17695        -0.09455        -0.01983        -0.05465        -0.01421        -0.00265        -1.75303         0.67098         0.16347        -0.09192
H        -0.60910         0.87194        -0.02070         0.00267        -0.03234        -0.00350        -0.44648         1.74334         0.10451        -0.08021
H        -0.54013        -0.95028        -0.02028         0.02560         0.03584        -0.00309        -0.07989        -0.29420         0.13136        -0.13769
