15   
Iteration 6 Energy -36.97731588
C        1.8105591167    0.0001369417   -0.0046242181
C        1.1112084747   -1.2063906806   -0.0007040438
C        1.1111061557    1.2065902027   -0.0007827283
C       -2.4714091859    0.0001481638    0.0014915216
C       -0.2822698947   -1.2078523684    0.0065743399
C       -0.2823217521    1.2073011009    0.0064951169
C       -0.9905202276   -0.0002907441    0.0093298890
H        2.9099295215    0.0002668590   -0.0098048794
H        1.6597723354   -2.1596068664   -0.0027743034
H        1.6594330480    2.1599192972   -0.0029115547
H       -2.8470282961   -0.0000458904   -1.0530606313
H       -2.8746620058    0.9072111066    0.5154322245
H       -2.8751936557   -0.9063766772    0.5159599516
H       -0.8306832587   -2.1613806086    0.0108575867
H       -0.8310203754    2.1606701639    0.0107217288