15
step: 0  E_total = -1390.569861548  
O        -1.45855         1.21588         0.02609
O         1.39437         1.21393        -0.05479
C         0.02672        -0.70260        -0.01032
C        -1.20790        -0.12481        -0.03340
C         1.28681        -0.05090         0.00901
C        -2.50182        -0.89290         0.01060
C         2.52353        -0.91655         0.05952
H         0.03331        -1.78297        -0.17118
H        -2.82960        -1.03675         1.03066
H        -2.44680        -1.88065        -0.55930
H        -3.26000        -0.20703        -0.45710
H         2.59927        -1.49664         1.01803
H         2.64224        -1.64619        -0.75642
H         3.42362        -0.24721         0.06099
H        -0.66085         1.75619        -0.13202
15
step: 10  E_total = -1390.569318373  
O        -1.44827         1.21679         0.01535
O         1.39364         1.20949        -0.05489
C        -0.01487        -0.75259        -0.02262
C        -1.19693        -0.11746        -0.03387
C         1.28377        -0.04718         0.03240
C        -2.52379        -0.87829         0.02126
C         2.56801        -0.89319         0.05036
H         0.13259        -1.84933        -0.14273
H        -2.82607        -1.06269         1.11027
H        -2.36534        -1.75714        -0.62004
H        -3.32499        -0.23601        -0.44617
H         2.50354        -1.55149         0.96211
H         2.65256        -1.67711        -0.76659
H         3.40427        -0.15048         0.10716
H        -0.69388         1.81039        -0.14270
15
step: 20  E_total = -1390.569821112  
O        -1.44349         1.22047         0.00405
O         1.38646         1.17998        -0.04916
C        -0.01960        -0.79215        -0.03740
C        -1.21151        -0.11821        -0.02287
C         1.29258        -0.03245         0.03191
C        -2.52800        -0.84088         0.02681
C         2.58174        -0.86584         0.05571
H         0.11261        -1.86885        -0.06452
H        -2.75705        -1.13257         1.06488
H        -2.34359        -1.74950        -0.62314
H        -3.38218        -0.29300        -0.40919
H         2.46062        -1.53161         0.93909
H         2.63328        -1.52183        -0.81864
H         3.42804        -0.15784         0.11783
H        -0.61945         1.72442        -0.13558
15
step: 30  E_total = -1390.569703294  
O        -1.43098         1.22494        -0.00918
O         1.37409         1.17504        -0.04093
C         0.00354        -0.78488        -0.04403
C        -1.22764        -0.13304        -0.00706
C         1.29027        -0.07262         0.01137
C        -2.51600        -0.81663         0.01889
C         2.55967        -0.83306         0.07167
H        -0.00081        -1.89656         0.01504
H        -2.69823        -1.22134         1.05991
H        -2.41050        -1.77690        -0.57456
H        -3.42479        -0.26505        -0.35855
H         2.52579        -1.51231         0.96335
H         2.63582        -1.36188        -0.95116
H         3.50571        -0.21160         0.14062
H        -0.53871         1.61175        -0.10492
15
step: 40  E_total = -1390.569171176  
O        -1.40274         1.21774        -0.02404
O         1.35571         1.17034        -0.03192
C         0.00774        -0.75343        -0.03756
C        -1.21569        -0.14071         0.00278
C         1.27692        -0.10087        -0.01435
C        -2.51374        -0.83246         0.01266
C         2.54285        -0.81825         0.07709
H        -0.07510        -1.83919         0.05180
H        -2.68404        -1.21274         1.07475
H        -2.52007        -1.76571        -0.57828
H        -3.35706        -0.18194        -0.26638
H         2.61654        -1.54364         0.91353
H         2.65109        -1.24550        -0.92435
H         3.47140        -0.23095         0.19300
H        -0.52508         1.63994        -0.05981
15
step: 50  E_total = -1390.569261496  
O        -1.37013         1.20336        -0.03879
O         1.33327         1.15210        -0.02499
C        -0.01289        -0.73456        -0.02139
C        -1.19407        -0.12769        -0.00044
C         1.26436        -0.06949        -0.02710
C        -2.51659        -0.86687         0.02640
C         2.54687        -0.82712         0.07661
H        -0.03066        -1.84031         0.04367
H        -2.69495        -1.14182         1.07461
H        -2.59328        -1.74999        -0.68522
H        -3.30207        -0.06185        -0.21108
H         2.60824        -1.64829         0.83568
H         2.70730        -1.31851        -0.95634
H         3.39993        -0.08452         0.27562
H        -0.55436         1.74518        -0.00875
15
step: 60  E_total = -1390.568597027  
O        -1.35330         1.20778        -0.05349
O         1.31318         1.17208        -0.02179
C        -0.01382        -0.75597        -0.00242
C        -1.19813        -0.12124        -0.01247
C         1.26055        -0.06412        -0.02232
C        -2.51656        -0.87285         0.03941
C         2.56314        -0.84652         0.05771
H         0.07520        -1.84652         0.00869
H        -2.72037        -1.18060         1.12526
H        -2.60273        -1.63285        -0.72616
H        -3.23931        -0.07805        -0.19309
H         2.50567        -1.69775         0.76531
H         2.79121        -1.34770        -0.87833
H         3.24689        -0.03435         0.33740
H        -0.55399         1.74706         0.04176
15
step: 70  E_total = -1390.568731200  
O        -1.35670         1.22859        -0.06856
O         1.29784         1.20805        -0.02102
C         0.00729        -0.79369         0.01314
C        -1.20984        -0.14094        -0.02082
C         1.26375        -0.07791        -0.01133
C        -2.50622        -0.84061         0.06365
C         2.55265        -0.85896         0.03991
H         0.12146        -1.88860        -0.02175
H        -2.69335        -1.29539         1.03045
H        -2.55908        -1.64838        -0.76050
H        -3.34710        -0.09255        -0.19669
H         2.39716        -1.68716         0.79375
H         2.91907        -1.32797        -0.93753
H         3.29756        -0.07776         0.42007
H        -0.48405         1.65828         0.08677
15
step: 80  E_total = -1390.568424810  
O        -1.35980         1.23202        -0.08140
O         1.28940         1.20269        -0.02088
C         0.01805        -0.81666         0.01997
C        -1.19871        -0.15749        -0.01873
C         1.27354        -0.04680        -0.00705
C        -2.50989        -0.80427         0.05680
C         2.53452        -0.85920         0.03162
H         0.06680        -1.91515        -0.01768
H        -2.64900        -1.42573         1.03085
H        -2.48931        -1.60893        -0.68163
H        -3.38698        -0.18938        -0.12545
H         2.35242        -1.64624         0.78672
H         2.93602        -1.20310        -0.91732
H         3.38680        -0.27945         0.45718
H        -0.49947         1.60916         0.10641
15
step: 90  E_total = -1390.568448808  
O        -1.35910         1.20343        -0.09165
O         1.28976         1.19007        -0.02142
C         0.01343        -0.80765         0.01735
C        -1.17165        -0.14619        -0.00650
C         1.28019        -0.02484        -0.00803
C        -2.51425        -0.80597         0.05629
C         2.51881        -0.84669         0.04515
H         0.00366        -1.89974         0.02523
H        -2.56624        -1.36796         0.98078
H        -2.47149        -1.64310        -0.74965
H        -3.44434        -0.15896        -0.03357
H         2.32048        -1.73883         0.72497
H         2.84032        -1.15039        -1.01027
H         3.45708        -0.39950         0.49821
H        -0.54673         1.72136         0.11697
15
step: 100  E_total = -1390.568807631  
O        -1.35796         1.17684        -0.09961
O         1.29573         1.20957        -0.02387
C         0.01541        -0.77518         0.01005
C        -1.16214        -0.12338         0.00810
C         1.27705        -0.05713        -0.00211
C        -2.50746        -0.83317         0.04073
C         2.51643        -0.85130         0.06187
H         0.01298        -1.87782         0.08236
H        -2.52072        -1.33066         1.09005
H        -2.55253        -1.53116        -0.78044
H        -3.34223        -0.12080         0.01650
H         2.29738        -1.82848         0.54262
H         2.66416        -1.11897        -1.01009
H         3.40279        -0.39307         0.51055
H        -0.63393         1.78160         0.09465
15
step: 110  E_total = -1390.568971705  
O        -1.37585         1.18543        -0.10958
O         1.30480         1.21175        -0.02737
C         0.02808        -0.74987         0.00595
C        -1.17395        -0.12965         0.01782
C         1.26842        -0.05297         0.01775
C        -2.47734        -0.85629         0.05159
C         2.50736        -0.87865         0.06382
H         0.06333        -1.83374         0.12450
H        -2.52612        -1.31402         1.03004
H        -2.66896        -1.51882        -0.86691
H        -3.27410        -0.03583         0.02469
H         2.31324        -1.92584         0.44626
H         2.62555        -1.07646        -1.05256
H         3.35104        -0.29995         0.53187
H        -0.57435         1.73920         0.06600
15
step: 120  E_total = -1390.569210688  
O        -1.39900         1.21755        -0.11773
O         1.32112         1.19881        -0.03030
C         0.02988        -0.74020         0.01287
C        -1.18840        -0.15450         0.01271
C         1.27230        -0.01429         0.04583
C        -2.45652        -0.85751         0.05414
C         2.48892        -0.90965         0.04333
H         0.10497        -1.84367         0.13049
H        -2.58429        -1.47718         1.01782
H        -2.68940        -1.49070        -0.79502
H        -3.23375        -0.04705         0.02739
H         2.38626        -1.91046         0.47316
H         2.76254        -1.00600        -1.05046
H         3.28162        -0.31189         0.52754
H        -0.53365         1.62106         0.00633
15
step: 130  E_total = -1390.569757902  
O        -1.41631         1.22907        -0.12090
O         1.35052         1.21840        -0.03208
C         0.01865        -0.74505         0.03450
C        -1.19439        -0.15443        -0.00555
C         1.28352        -0.02582         0.06693
C        -2.46777        -0.86029         0.07277
C         2.47383        -0.91592         0.00909
H         0.11540        -1.82652         0.09501
H        -2.59642        -1.56663         0.90652
H        -2.62914        -1.56192        -0.82726
H        -3.29458        -0.10090         0.08131
H         2.39871        -1.90188         0.55508
H         2.92094        -0.97570        -1.00578
H         3.30767        -0.38020         0.58252
H        -0.53475         1.65625        -0.07730
15
step: 140  E_total = -1390.569997053  
O        -1.42269         1.21311        -0.12046
O         1.38655         1.23126        -0.02817
C         0.00861        -0.74446         0.06488
C        -1.20093        -0.11940        -0.02354
C         1.28852        -0.04114         0.06282
C        -2.50378        -0.87791         0.07323
C         2.49130        -0.90409         0.00024
H         0.07404        -1.86077         0.06038
H        -2.53238        -1.62088         0.92389
H        -2.52964        -1.51660        -0.84089
H        -3.38618        -0.18761         0.14933
H         2.30347        -1.86672         0.50906
H         2.95766        -1.02613        -1.01639
H         3.30746        -0.46208         0.63225
H        -0.61851         1.75963        -0.17504
15
step: 150  E_total = -1390.569861472  
O        -1.43467         1.20068        -0.12022
O         1.41769         1.20689        -0.01758
C         0.00066        -0.73284         0.09158
C        -1.20981        -0.09636        -0.02493
C         1.28758        -0.01532         0.03259
C        -2.52587        -0.89766         0.06693
C         2.52683        -0.89086         0.01157
H        -0.00839        -1.81248         0.06355
H        -2.42279        -1.57730         0.95916
H        -2.51013        -1.44752        -0.90780
H        -3.43854        -0.29665         0.19579
H         2.16834        -1.91536         0.38029
H         2.86306        -1.07758        -1.02486
H         3.32048        -0.48015         0.67093
H        -0.64850         1.76678        -0.26782
15
step: 160  E_total = -1390.569636833  
O        -1.45820         1.21735        -0.12373
O         1.44248         1.19807        -0.00679
C        -0.00822        -0.69553         0.10266
C        -1.22341        -0.11636        -0.00752
C         1.28937        -0.01989         0.00006
C        -2.50992        -0.90951         0.05632
C         2.53427        -0.89576         0.03024
H        -0.03711        -1.81801         0.12926
H        -2.33386        -1.54786         0.93930
H        -2.60059        -1.44203        -0.93702
H        -3.47092        -0.33057         0.20880
H         2.16237        -1.90332         0.27990
H         2.81759        -1.04504        -1.06094
H         3.34426        -0.48810         0.67362
H        -0.61051         1.65800        -0.32689
15
step: 170  E_total = -1390.569454398  
O        -1.47923         1.23667        -0.13041
O         1.46135         1.21036        -0.00016
C        -0.00987        -0.66663         0.09736
C        -1.25485        -0.13073         0.01322
C         1.29920        -0.05044        -0.01255
C        -2.47792        -0.91314         0.04161
C         2.51058        -0.91025         0.02543
H         0.02559        -1.74336         0.24387
H        -2.34373        -1.65640         0.91650
H        -2.70762        -1.48522        -0.87573
H        -3.38135        -0.31197         0.21622
H         2.26449        -1.97277         0.33632
H         2.88044        -0.91650        -1.02509
H         3.33791        -0.51194         0.64555
H        -0.59203         1.58629        -0.35208
15
step: 180  E_total = -1390.569031216  
O        -1.49023         1.23517        -0.13880
O         1.47213         1.19950         0.00083
C        -0.01070        -0.64936         0.08583
C        -1.26777        -0.10656         0.02234
C         1.30937        -0.03309         0.00019
C        -2.46128        -0.93743         0.04861
C         2.48369        -0.93958         0.00639
H         0.09797        -1.73938         0.35945
H        -2.43508        -1.72851         0.79459
H        -2.71863        -1.54479        -0.88587
H        -3.32933        -0.21289         0.26949
H         2.38711        -1.96856         0.39116
H         2.98748        -0.84103        -1.01280
H         3.29701        -0.49722         0.67406
H        -0.63450         1.65512        -0.34664
15
step: 190  E_total = -1390.568702442  
O        -1.50143         1.22759        -0.14962
O         1.48110         1.19335        -0.00235
C        -0.01250        -0.64658         0.08369
C        -1.23505        -0.08185         0.01877
C         1.30272        -0.01372         0.02410
C        -2.48153        -0.95917         0.05643
C         2.48809        -0.95381        -0.01343
H         0.07770        -1.67659         0.39186
H        -2.47673        -1.82161         0.82449
H        -2.62343        -1.44284        -0.91494
H        -3.26591        -0.24059         0.29907
H         2.37991        -2.00014         0.35472
H         3.00395        -0.89806        -0.97878
H         3.18390        -0.46747         0.71977
H        -0.69221         1.75799        -0.30441
15
step: 200  E_total = -1390.568408084  
O        -1.52004         1.22894        -0.16364
O         1.49038         1.21395        -0.00707
C         0.00025        -0.64612         0.09620
C        -1.20482        -0.08666         0.01288
C         1.28882        -0.03428         0.03912
C        -2.48626        -0.96515         0.07389
C         2.50013        -0.94878        -0.01395
H        -0.00343        -1.74717         0.36346
H        -2.42277        -1.74537         0.80397
H        -2.54890        -1.32574        -1.02188
H        -3.38100        -0.29605         0.33151
H         2.24250        -2.01532         0.24170
H         2.98268        -1.00199        -1.03978
H         3.15165        -0.47342         0.77938
H        -0.71909         1.77564        -0.22870
15
step: 210  E_total = -1390.568706004  
O        -1.53876         1.22559        -0.17815
O         1.48989         1.21498        -0.01051
C         0.01826        -0.67134         0.12386
C        -1.22155        -0.09530         0.01250
C         1.30384        -0.02768         0.03583
C        -2.47004        -0.92755         0.06822
C         2.49990        -0.93929        -0.00553
H        -0.04724        -1.74546         0.25448
H        -2.30996        -1.77842         0.83675
H        -2.55593        -1.24454        -0.96407
H        -3.41170        -0.42742         0.31203
H         2.10312        -1.96581         0.15419
H         2.92737        -1.00803        -1.01490
H         3.21924        -0.59967         0.75872
H        -0.70321         1.74043        -0.14146
15
step: 220  E_total = -1390.568181229  
O        -1.54347         1.21390        -0.18947
O         1.47923         1.20480        -0.01342
C         0.00849        -0.68349         0.14672
C        -1.24223        -0.09412         0.02213
C         1.33371         0.00045         0.02796
C        -2.43796        -0.89678         0.06865
C         2.47954        -0.93885         0.00289
H         0.01177        -1.80860         0.16244
H        -2.23346        -1.73808         0.72462
H        -2.63245        -1.33758        -1.00428
H        -3.43447        -0.43562         0.35060
H         2.05899        -1.98145         0.17848
H         2.94329        -0.90334        -1.03793
H         3.33630        -0.76247         0.72566
H        -0.71717         1.70918        -0.07682
15
step: 230  E_total = -1390.568727872  
O        -1.53469         1.20591        -0.19663
O         1.46642         1.22676        -0.01864
C        -0.01095        -0.67162         0.15016
C        -1.22127        -0.09002         0.03507
C         1.33307        -0.01359         0.03698
C        -2.44010        -0.90181         0.04727
C         2.46846        -0.95965         0.00034
H         0.09774        -1.75075         0.14070
H        -2.20778        -1.82161         0.70914
H        -2.67563        -1.36657        -0.89641
H        -3.32533        -0.35534         0.41321
H         2.13203        -1.98410         0.20217
H         2.93134        -0.80978        -0.99969
H         3.32362        -0.85727         0.68113
H        -0.73200         1.75024        -0.04839
15
step: 240  E_total = -1390.569225613  
O        -1.51529         1.21024        -0.19877
O         1.45112         1.24000        -0.02407
C         0.00770        -0.64170         0.13764
C        -1.19620        -0.08790         0.03888
C         1.30234        -0.01713         0.06406
C        -2.45175        -0.94107         0.04694
C         2.46775        -0.98509        -0.01143
H         0.09488        -1.75822         0.20726
H        -2.27832        -1.80487         0.70668
H        -2.73833        -1.36476        -0.98523
H        -3.22829        -0.24576         0.49843
H         2.17698        -2.08041         0.14942
H         2.91734        -0.80779        -1.03117
H         3.28390        -0.77642         0.76226
H        -0.75668         1.79550        -0.06031
15
step: 250  E_total = -1390.569149844  
O        -1.49661         1.21931        -0.19726
O         1.43467         1.22367        -0.02574
C         0.04504        -0.63526         0.12634
C        -1.20293        -0.09354         0.02575
C         1.29102         0.01114         0.08838
C        -2.45585        -0.96493         0.05017
C         2.46915        -0.99873        -0.01885
H         0.01645        -1.71783         0.31112
H        -2.36903        -1.83839         0.75503
H        -2.75455        -1.22705        -0.96256
H        -3.19407        -0.26291         0.49975
H         2.20813        -2.04706         0.03632
H         2.90948        -0.87977        -1.03280
H         3.13286        -0.65181         0.78268
H        -0.71095         1.79788        -0.08862
15
step: 260  E_total = -1390.569689894  
O        -1.47975         1.22513        -0.19298
O         1.42572         1.22658        -0.02453
C         0.03111        -0.64956         0.12783
C        -1.21238        -0.11035         0.00401
C         1.31569         0.00395         0.09037
C        -2.44440        -0.95460         0.07061
C         2.45536        -0.97264        -0.02748
H        -0.00056        -1.72180         0.40865
H        -2.39238        -1.86385         0.71147
H        -2.77133        -1.14740        -1.00726
H        -3.29738        -0.33020         0.48772
H         2.15327        -2.07985         0.02480
H         2.96032        -0.89773        -1.02653
H         3.11229        -0.60992         0.82308
H        -0.63889         1.70740        -0.13136
15
step: 270  E_total = -1390.569539937  
O        -1.46067         1.21804        -0.18730
O         1.42426         1.24120        -0.01945
C        -0.00911        -0.67588         0.14679
C        -1.21976        -0.12216        -0.01293
C         1.33088        -0.02522         0.06311
C        -2.44820        -0.91894         0.08251
C         2.44556        -0.93834        -0.02778
H         0.05895        -1.73915         0.44627
H        -2.31048        -1.89684         0.59567
H        -2.73579        -1.16126        -0.97491
H        -3.35210        -0.41002         0.48992
H         2.10771        -1.96160         0.10868
H         3.02213        -0.83459        -0.97881
H         3.17557        -0.73086         0.79219
H        -0.57213         1.64001        -0.19645
15
step: 280  E_total = -1390.569637374  
O        -1.43356         1.20376        -0.18372
O         1.42357         1.22523        -0.01060
C        -0.01551        -0.70305         0.17402
C        -1.23084        -0.11617        -0.01398
C         1.29482        -0.00311         0.02173
C        -2.47068        -0.89438         0.07495
C         2.46708        -0.91319        -0.01918
H         0.08718        -1.76148         0.42735
H        -2.19266        -1.90814         0.54268
H        -2.71760        -1.20930        -0.97701
H        -3.34312        -0.41880         0.56611
H         2.06638        -1.98306         0.15972
H         3.04331        -0.75966        -0.96361
H         3.26166        -0.83588         0.77898
H        -0.58134         1.65875        -0.28034
15
step: 290  E_total = -1390.569183570  
O        -1.40960         1.20084        -0.18558
O         1.42010         1.21681        -0.00465
C         0.00022        -0.71117         0.19065
C        -1.22302        -0.11541         0.00460
C         1.24078         0.00575        -0.00314
C        -2.49395        -0.90283         0.05621
C         2.49553        -0.91279        -0.00490
H         0.05174        -1.80227         0.39204
H        -2.16858        -1.81655         0.55968
H        -2.79201        -1.19028        -0.99801
H        -3.29180        -0.38536         0.64976
H         2.13794        -1.93742         0.06669
H         3.00349        -0.74515        -0.98817
H         3.24493        -0.78741         0.79731
H        -0.58544         1.70491        -0.36048
15
step: 300  E_total = -1390.568846969  
O        -1.39506         1.21121        -0.19247
O         1.41023         1.22928        -0.00516
C         0.00102        -0.71058         0.19059
C        -1.20200        -0.12611         0.02950
C         1.23089        -0.02807         0.00332
C        -2.50120        -0.91121         0.03683
C         2.50063        -0.90461        -0.00607
H         0.01718        -1.78671         0.35284
H        -2.25542        -1.87224         0.65056
H        -2.92422        -1.08838        -0.95763
H        -3.22966        -0.34994         0.65600
H         2.22856        -2.02009        -0.04845
H         2.97899        -0.74227        -1.00118
H         3.15821        -0.60409         0.85535
H        -0.56400         1.66743        -0.39933
15
step: 310  E_total = -1390.569103050  
O        -1.38827         1.21426        -0.19970
O         1.38936         1.21511        -0.01064
C        -0.00807        -0.71646         0.17917
C        -1.20785        -0.12866         0.04181
C         1.27980        -0.03698         0.03178
C        -2.48370        -0.91336         0.04879
C         2.47926        -0.89468        -0.02335
H         0.02892        -1.82059         0.34606
H        -2.43770        -1.85402         0.56415
H        -3.00391        -1.01330        -0.96403
H        -3.23291        -0.28178         0.64460
H         2.34815        -1.97665        -0.03414
H         3.04002        -0.67995        -0.97875
H         3.04033        -0.48212         0.84677
H        -0.50855         1.60246        -0.40120
15
step: 320  E_total = -1390.568264431  
O        -1.38293         1.20522        -0.20591
O         1.36636         1.18819        -0.01744
C        -0.00148        -0.73091         0.16500
C        -1.22920        -0.12847         0.03919
C         1.30883        -0.03293         0.06173
C        -2.48585        -0.88139         0.06858
C         2.47384        -0.87291        -0.04950
H         0.05894        -1.79394         0.34684
H        -2.51528        -1.96834         0.48065
H        -2.91419        -0.94851        -0.93805
H        -3.21076        -0.24963         0.61631
H         2.39022        -1.99271         0.08019
H         3.11784        -0.58789        -0.91575
H         3.06037        -0.49810         0.85925
H        -0.51228         1.58555        -0.38031
15
step: 330  E_total = -1390.568954566  
O        -1.38449         1.19105        -0.21125
O         1.34836         1.18894        -0.02354
C         0.00712        -0.73178         0.15280
C        -1.21431        -0.14132         0.03396
C         1.27534        -0.05574         0.07715
C        -2.51052        -0.85224         0.09182
C         2.51701        -0.85960        -0.04966
H         0.07133        -1.83178         0.35772
H        -2.44216        -1.87617         0.38916
H        -2.81637        -0.90124        -1.03749
H        -3.25608        -0.23831         0.68602
H         2.33964        -1.93636         0.10635
H         3.14789        -0.55398        -0.91451
H         3.16385        -0.61728         0.84971
H        -0.52413         1.64377        -0.35730
15
step: 340  E_total = -1390.568419068  
O        -1.38971         1.17629        -0.21641
O         1.33230         1.19288        -0.02607
C         0.00665        -0.75056         0.15028
C        -1.18361        -0.14728         0.03220
C         1.24369        -0.06377         0.07016
C        -2.54112        -0.80958         0.08520
C         2.57540        -0.84772        -0.01892
H         0.04465        -1.81058         0.34635
H        -2.33155        -1.90109         0.44070
H        -2.78565        -0.82776        -0.96839
H        -3.27438        -0.31008         0.72125
H         2.25838        -1.93926        -0.02917
H         3.09462        -0.58854        -0.97759
H         3.27200        -0.70111         0.83001
H        -0.57037         1.67947        -0.31448
15
step: 350  E_total = -1390.568916471  
O        -1.39799         1.16512        -0.22149
O         1.31426         1.18374        -0.02555
C         0.00464        -0.78556         0.15437
C        -1.18446        -0.13371         0.03490
C         1.27241        -0.04182         0.05252
C        -2.53351        -0.79233         0.07988
C         2.59657        -0.84538         0.00959
H         0.01834        -1.88804         0.34397
H        -2.34081        -1.78258         0.47126
H        -2.95251        -0.78417        -1.00392
H        -3.30551        -0.33183         0.76823
H         2.28051        -1.90766        -0.17515
H         3.01769        -0.61275        -1.00099
H         3.32950        -0.70338         0.83024
H        -0.57296         1.69411        -0.25975
15
step: 360  E_total = -1390.569457339  
O        -1.40321         1.17374        -0.22841
O         1.29788         1.19023        -0.02590
C         0.00996        -0.80973         0.15781
C        -1.19806        -0.13286         0.03945
C         1.32225        -0.05631         0.04723
C        -2.52264        -0.78161         0.06692
C         2.57608        -0.84571         0.01120
H         0.02327        -1.86940         0.32467
H        -2.41555        -1.84975         0.48459
H        -3.07846        -0.78093        -0.86918
H        -3.23121        -0.27714         0.75680
H         2.37127        -1.92674        -0.16025
H         3.05499        -0.53626        -0.97441
H         3.29261        -0.66538         0.83170
H        -0.58042         1.67649        -0.20158
15
step: 370  E_total = -1390.569631168  
O        -1.40370         1.19203        -0.23445
O         1.28901         1.18973        -0.02594
C         0.01908        -0.78439         0.15338
C        -1.18773        -0.15443         0.03628
C         1.32558        -0.08055         0.05620
C        -2.52173        -0.79867         0.07802
C         2.55596        -0.84785        -0.01696
H         0.05248        -1.89424         0.31859
H        -2.49059        -1.84868         0.40573
H        -3.14209        -0.79492        -0.88101
H        -3.12395        -0.15024         0.80691
H         2.44292        -1.97799        -0.02962
H         3.15924        -0.44568        -0.87484