15
step: 0  E_total = -1390.569861548  
O        -1.45855         1.21588         0.02609
O         1.39437         1.21393        -0.05479
C         0.02672        -0.70260        -0.01032
C        -1.20790        -0.12481        -0.03340
C         1.28681        -0.05090         0.00901
C        -2.50182        -0.89290         0.01060
C         2.52353        -0.91655         0.05952
H         0.03331        -1.78297        -0.17118
H        -2.82960        -1.03675         1.03066
H        -2.44680        -1.88065        -0.55930
H        -3.26000        -0.20703        -0.45710
H         2.59927        -1.49664         1.01803
H         2.64224        -1.64619        -0.75642
H         3.42362        -0.24721         0.06099
H        -0.66085         1.75619        -0.13202
15
step: 10  E_total = -1390.580615719  
O        -1.44936         1.21967         0.01717
O         1.38735         1.21152        -0.06023
C        -0.01196        -0.75021        -0.01948
C        -1.19475        -0.11328        -0.02888
C         1.28697        -0.04605         0.03473
C        -2.52937        -0.87868         0.02033
C         2.56320        -0.89019         0.05227
H         0.14221        -1.84149        -0.14942
H        -2.81900        -1.03845         1.11047
H        -2.36297        -1.76552        -0.60214
H        -3.32014        -0.21887        -0.45117
H         2.50024        -1.56276         0.95214
H         2.67025        -1.66899        -0.77386
H         3.39925        -0.15657         0.10453
H        -0.69366         1.80857        -0.13781
15
step: 20  E_total = -1390.565724535  
O        -1.44917         1.22614         0.01431
O         1.37522         1.18125        -0.07058
C        -0.01110        -0.77334        -0.01816
C        -1.20661        -0.11682        -0.01688
C         1.29471        -0.02971         0.03682
C        -2.53272        -0.83637         0.02078
C         2.57134        -0.86409         0.05775
H         0.13955        -1.85175        -0.08642
H        -2.78364        -1.10416         1.06632
H        -2.34748        -1.76231        -0.59784
H        -3.37631        -0.29047        -0.40856
H         2.44653        -1.54512         0.92838
H         2.63569        -1.47426        -0.84565
H         3.42398        -0.15150         0.12329
H        -0.61994         1.72976        -0.12182
15
step: 30  E_total = -1390.416520957  
O        -1.44070         1.23589         0.01082
O         1.36108         1.17908        -0.07769
C         0.01392        -0.74916        -0.00979
C        -1.22596        -0.12437        -0.00612
C         1.28770        -0.05827         0.01643
C        -2.50885        -0.79738         0.00333
C         2.54294        -0.83037         0.07457
H         0.02243        -1.86813        -0.00061
H        -2.74508        -1.19737         1.04457
H        -2.44732        -1.78076        -0.55403
H        -3.43914        -0.27768        -0.38402
H         2.49035        -1.51474         0.96319
H         2.60786        -1.29079        -1.00387
H         3.48382        -0.22028         0.15544
H        -0.54692         1.62844        -0.06180
15
step: 40  E_total = -1390.397574523  
O        -1.41223         1.23555         0.00739
O         1.35061         1.19592        -0.07718
C         0.00641        -0.71728         0.00728
C        -1.21998        -0.11473         0.00074
C         1.27319        -0.07023        -0.01532
C        -2.51393        -0.80258        -0.01277
C         2.52944        -0.80980         0.07135
H        -0.05214        -1.79836         0.04008
H        -2.67840        -1.18405         1.04549
H        -2.54211        -1.73415        -0.59958
H        -3.36660        -0.21368        -0.34564
H         2.56587        -1.55026         0.88356
H         2.62121        -1.18009        -0.94419
H         3.46585        -0.24587         0.23069
H        -0.54281         1.67233         0.05363
15
step: 50  E_total = -1390.411011781  
O        -1.37916         1.23445         0.01099
O         1.34680         1.20036        -0.07490
C        -0.02318        -0.69755         0.01852
C        -1.19933        -0.09139        -0.00153
C         1.25832        -0.02176        -0.03266
C        -2.52172        -0.83340        -0.00872
C         2.54496        -0.80464         0.06722
H        -0.02464        -1.80707         0.04681
H        -2.67461        -1.11417         1.04602
H        -2.53211        -1.71499        -0.73946
H        -3.32695        -0.03775        -0.31610
H         2.56638        -1.69815         0.78535
H         2.69913        -1.28466        -0.97276
H         3.40806        -0.09282         0.32440
H        -0.56356         1.76307         0.16992
15
step: 60  E_total = -1390.366530676  
O        -1.36476         1.26185         0.01723
O         1.34309         1.23425        -0.07423
C        -0.03151        -0.71027         0.02011
C        -1.21073        -0.08320        -0.01834
C         1.25388        -0.00069        -0.02465
C        -2.52485        -0.83917        -0.01871
C         2.56431        -0.81057         0.04936
H         0.05639        -1.81486         0.06896
H        -2.76730        -1.12674         1.04707
H        -2.49392        -1.59505        -0.77612
H        -3.20614        -0.04571        -0.24134
H         2.49152        -1.69841         0.68756
H         2.79911        -1.31880        -0.89423
H         3.24148        -0.00980         0.36089
H        -0.55524         1.75090         0.24931
15
step: 70  E_total = -1390.385658785  
O        -1.36846         1.29582         0.01979
O         1.34135         1.25910        -0.07566
C        -0.00346        -0.73367         0.01685
C        -1.23333        -0.09288        -0.01715
C         1.25704        -0.01501        -0.01171
C        -2.51262        -0.81928        -0.02084
C         2.54988        -0.80098         0.02779
H         0.09604        -1.80798         0.08592
H        -2.81454        -1.25623         0.94285
H        -2.47446        -1.62724        -0.86601
H        -3.36071        -0.01973        -0.24152
H         2.38480        -1.65075         0.76776
H         2.94276        -1.24015        -0.93874
H         3.28782        -0.01499         0.42390
H        -0.49739         1.66281         0.28712
15
step: 80  E_total = -1390.375958900  
O        -1.36678         1.30290         0.01966
O         1.32845         1.24622        -0.07145
C         0.01219        -0.73662         0.01576
C        -1.21863        -0.09247        -0.00403
C         1.27433         0.00731        -0.00252
C        -2.51737        -0.78044        -0.04012
C         2.53904        -0.78499         0.02307
H         0.07677        -1.86263         0.08836
H        -2.73328        -1.41838         0.87763
H        -2.47086        -1.52399        -0.80670
H        -3.39321        -0.16532        -0.25210
H         2.37689        -1.54541         0.79514
H         2.95462        -1.08867        -0.95189
H         3.37132        -0.22251         0.48348
H        -0.49460         1.63627         0.27392
15
step: 90  E_total = -1390.328939676  
O        -1.36437         1.27389         0.01579
O         1.31783         1.23355        -0.06558
C         0.00071        -0.73253         0.02520
C        -1.18089        -0.07836         0.02188
C         1.27972         0.01595        -0.00705
C        -2.52063        -0.75868        -0.05708
C         2.53548        -0.77107         0.04286
H         0.03562        -1.78729         0.04152
H        -2.57914        -1.44223         0.81769
H        -2.44169        -1.52086        -0.97891
H        -3.43667        -0.14122        -0.25068
H         2.39813        -1.65067         0.75102
H         2.82434        -1.00590        -1.01191
H         3.45385        -0.30559         0.55459
H        -0.53149         1.73179         0.23297
15
step: 100  E_total = -1390.270425171  
O        -1.36000         1.24414         0.01408
O         1.31643         1.24852        -0.06545
C        -0.00546        -0.71148         0.03228
C        -1.16645        -0.05260         0.03924
C         1.26811        -0.01632         0.00038
C        -2.49551        -0.76839        -0.09987
C         2.54863        -0.77820         0.08353
H         0.01847        -1.85122         0.00215
H        -2.49616        -1.41010         0.82536
H        -2.43642        -1.33116        -0.99839
H        -3.35682        -0.05215        -0.17521
H         2.34731        -1.77074         0.55779
H         2.69238        -1.01166        -1.04014
H         3.37998        -0.26085         0.55279
H        -0.59400         1.82280         0.15403
15
step: 110  E_total = -1390.264033348  
O        -1.36997         1.26210         0.00890
O         1.30198         1.24286        -0.05997
C         0.01704        -0.70397         0.03858
C        -1.18223        -0.05326         0.03673
C         1.26625        -0.01825         0.03163
C        -2.45911        -0.76741        -0.11967
C         2.55365        -0.80704         0.10358
H         0.00723        -1.75519        -0.03366
H        -2.54465        -1.41883         0.77634
H        -2.48072        -1.29233        -1.16019
H        -3.25682        -0.00657        -0.05422
H         2.37994        -1.85142         0.43078
H         2.70255        -1.01734        -0.95952
H         3.34491        -0.14271         0.55367
H        -0.57646         1.82774         0.06913
15
step: 120  E_total = -1390.212737613  
O        -1.38983         1.31542         0.00957
O         1.29049         1.22263        -0.04426
C         0.03459        -0.69762         0.04208
C        -1.17519        -0.07321         0.01380
C         1.28582         0.00483         0.07404
C        -2.43350        -0.76719        -0.13488
C         2.54603        -0.83513         0.09464
H         0.04941        -1.84160        -0.02431
H        -2.65877        -1.54606         0.66722
H        -2.52814        -1.21821        -1.11847
H        -3.27997         0.00730        -0.01395
H         2.46174        -1.85858         0.53612
H         2.88204        -0.96153        -1.02993
H         3.28622        -0.19117         0.58519
H        -0.51395         1.74495        -0.01264
15
step: 130  E_total = -1390.185230302  
O        -1.39767         1.34029         0.00867
O         1.29530         1.23149        -0.02698
C         0.03871        -0.71846         0.05124
C        -1.14757        -0.06267        -0.01869
C         1.30856        -0.01488         0.10942
C        -2.45239        -0.76851        -0.12678
C         2.53207        -0.84687         0.05755
H         0.09832        -1.78075         0.04301
H        -2.69528        -1.65866         0.49087
H        -2.57345        -1.21602        -1.17424
H        -3.26522        -0.05651        -0.02840
H         2.50654        -1.79499         0.65099
H         2.98008        -0.89266        -0.90373
H         3.33826        -0.30978         0.70802
H        -0.53682         1.73424        -0.07450
15
step: 140  E_total = -1390.209233256  
O        -1.39297         1.32225        -0.00001
O         1.31131         1.23457        -0.00084
C         0.04023        -0.72966         0.06478
C        -1.14301        -0.03251        -0.03546
C         1.31312        -0.02494         0.12515
C        -2.48148        -0.77543        -0.13714
C         2.54292        -0.84063         0.07501
H         0.08519        -1.86495         0.09250
H        -2.57616        -1.71496         0.44337
H        -2.56331        -1.15159        -1.22036
H        -3.34894        -0.01884         0.03034
H         2.43615        -1.81715         0.61483
H         3.03350        -0.88362        -0.98330
H         3.32772        -0.39956         0.71997
H        -0.57803         1.89656        -0.13543
15
step: 150  E_total = -1390.176860105  
O        -1.38097         1.28484        -0.02203
O         1.33545         1.22101         0.03468
C         0.03226        -0.72643         0.07947
C        -1.15830        -0.02273        -0.04047
C         1.28989        -0.01085         0.11087
C        -2.49794        -0.77010        -0.16881
C         2.57261        -0.83293         0.10925
H         0.01305        -1.78945         0.10839
H        -2.42651        -1.65969         0.51799
H        -2.57780        -1.01630        -1.21672
H        -3.29683        -0.11704         0.12614
H         2.28532        -1.88737         0.41365
H         2.90411        -0.90507        -0.91877
H         3.38834        -0.40208         0.74736
H        -0.66229         1.87813        -0.13972
15
step: 160  E_total = -1390.238878292  
O        -1.38434         1.26289        -0.04387
O         1.36203         1.22194         0.07027
C        -0.00032        -0.69069         0.09056
C        -1.16745        -0.05588        -0.04426
C         1.27733        -0.01725         0.09114
C        -2.47580        -0.75252        -0.18496
C         2.57414        -0.82593         0.15150
H        -0.05869        -1.81658         0.14947
H        -2.35961        -1.59732         0.52317
H        -2.66067        -0.94498        -1.33276
H        -3.37852        -0.15707         0.24934
H         2.25350        -1.89889         0.27874
H         2.84593        -0.90156        -0.97475
H         3.39197        -0.40386         0.75057
H        -0.52610         1.80173        -0.13217
15
step: 170  E_total = -1390.183067281  
O        -1.38594         1.28004        -0.06454
O         1.38739         1.22953         0.10525
C        -0.01238        -0.67576         0.09065
C        -1.20015        -0.08192        -0.05904
C         1.29207        -0.02560         0.08521
C        -2.45950        -0.73914        -0.20086
C         2.53831        -0.82244         0.15573
H        -0.03682        -1.75620         0.17349
H        -2.41839        -1.72989         0.38385
H        -2.69998        -0.88117        -1.21941
H        -3.27399        -0.19870         0.23501
H         2.34174        -1.90599         0.35619
H         2.89848        -0.77087        -0.90224
H         3.36774        -0.41215         0.78752
H        -0.52166         1.64723        -0.08332
15
step: 180  E_total = -1390.282317928  
O        -1.38617         1.29935        -0.08889
O         1.40794         1.22915         0.13960
C         0.00763        -0.66945         0.08588
C        -1.21635        -0.05779        -0.07306
C         1.30110        -0.00092         0.10720
C        -2.47021        -0.76829        -0.18992
C         2.50863        -0.83223         0.13496
H         0.04369        -1.78365         0.19441
H        -2.50759        -1.81416         0.13281
H        -2.76384        -0.89905        -1.33923
H        -3.30385        -0.09978         0.30038
H         2.42937        -1.87666         0.50463
H         3.03308        -0.66867        -0.85674
H         3.25139        -0.40086         0.88075
H        -0.47802         1.70872        -0.04478
15
step: 190  E_total = -1390.305664518  
O        -1.36950         1.31196        -0.11421
O         1.42046         1.25243         0.16979
C         0.01754        -0.66955         0.08492
C        -1.18689        -0.03314        -0.08143
C         1.28869         0.02129         0.14435
C        -2.51962        -0.79339        -0.20322
C         2.51439        -0.83680         0.12547
H         0.09701        -1.74606         0.21227
H        -2.48530        -1.88726         0.04685
H        -2.74783        -0.82094        -1.25147
H        -3.23770        -0.16126         0.27972
H         2.43295        -1.87009         0.54565
H         3.11518        -0.71671        -0.80039
H         3.09329        -0.34447         0.97604
H        -0.55975         1.82113         0.00249
15
step: 200  E_total = -1390.225344038  
O        -1.36452         1.32004        -0.15205
O         1.42848         1.28012         0.19986
C         0.00887        -0.65908         0.08113
C        -1.16572        -0.04606        -0.08485
C         1.27421         0.03458         0.17772
C        -2.53258        -0.80486        -0.22240
C         2.53494        -0.82955         0.15829
H         0.07128        -1.75972         0.19767
H        -2.42209        -1.84341         0.14634
H        -2.80778        -0.70879        -1.35581
H        -3.32854        -0.23005         0.40575
H         2.32665        -1.91029         0.39048
H         3.15569        -0.82548        -0.75821
H         3.06828        -0.30915         1.00324
H        -0.55711         1.85563         0.06482
15
step: 210  E_total = -1390.116032065  
O        -1.36694         1.31900        -0.19926
O         1.42914         1.28966         0.23104
C         0.01638        -0.65100         0.08781
C        -1.19649        -0.04937        -0.08813
C         1.28627         0.04945         0.18183
C        -2.51407        -0.76990        -0.24187
C         2.53859        -0.81276         0.22242
H        -0.00678        -1.74916         0.14616
H        -2.37958        -1.79680         0.21959
H        -2.86536        -0.65332        -1.26166
H        -3.30234        -0.41715         0.42695
H         2.20598        -1.88077         0.25270
H         3.15481        -0.83234        -0.75984
H         3.18615        -0.39853         1.02181
H        -0.54171         1.72000         0.09090
15
step: 220  E_total = -1390.112711861  
O        -1.37429         1.31045        -0.24044
O         1.42101         1.29668         0.25964
C         0.00476        -0.63468         0.09816
C        -1.23912        -0.03759        -0.10025
C         1.31177         0.06576         0.17832
C        -2.47803        -0.72921        -0.24092
C         2.53540        -0.79936         0.26440
H         0.01752        -1.73245         0.09219
H        -2.30846        -1.80492         0.06838
H        -2.96684        -0.66199        -1.28327
H        -3.31033        -0.40219         0.48228
H         2.18677        -1.87567         0.29651
H         3.04284        -0.68308        -0.68268
H         3.29513        -0.59410         1.08250
H        -0.50675         1.65708         0.05583
15
step: 230  E_total = -1390.053000859  
O        -1.37588         1.30730        -0.27840
O         1.42142         1.30666         0.28096
C        -0.01716        -0.59912         0.09811
C        -1.22232        -0.01372        -0.11131
C         1.32120         0.07180         0.20142
C        -2.49031        -0.72501        -0.23063
C         2.52813        -0.80392         0.29859
H         0.07448        -1.70379         0.07704
H        -2.23790        -1.81712        -0.17320
H        -2.94851        -0.67938        -1.24301
H        -3.21628        -0.31157         0.47564
H         2.28970        -1.87416         0.43310
H         3.03409        -0.48390        -0.71653
H         3.23688        -0.73678         1.13515
H        -0.56016         1.80864        -0.05330
15
step: 240  E_total = -1390.030105331  
O        -1.37428         1.33279        -0.32437
O         1.42214         1.32022         0.29196
C        -0.00117        -0.57437         0.09280
C        -1.16838         0.01054        -0.13029
C         1.30681         0.07312         0.25149
C        -2.50760        -0.74264        -0.23482
C         2.52287        -0.82116         0.31275
H         0.10736        -1.66865         0.11696
H        -2.26952        -1.82552        -0.27367
H        -2.93722        -0.55974        -1.27513
H        -3.16997        -0.30416         0.55545
H         2.33475        -1.94884         0.42283
H         3.03455        -0.46260        -0.54794
H         3.15454        -0.62484         1.24791
H        -0.60996         1.91444        -0.18186
15
step: 250  E_total = -1390.098104934  
O        -1.38760         1.37876        -0.36210
O         1.42339         1.32271         0.30720
C         0.04889        -0.56539         0.08902
C        -1.14568         0.04899        -0.15553
C         1.28911         0.08132         0.29678
C        -2.49361        -0.74611        -0.25013
C         2.51135        -0.82834         0.35333
H         0.09509        -1.66582         0.16032
H        -2.35407        -1.85117        -0.20573
H        -2.93094        -0.36468        -1.20507
H        -3.14850        -0.46243         0.61716
H         2.28519        -1.87863         0.27689
H         3.24328        -0.55593        -0.53656
H         3.02979        -0.45589         1.24111
H        -0.57441         1.90842        -0.29149
15
step: 260  E_total = -1390.112849522  
O        -1.39855         1.40962        -0.39123
O         1.43017         1.33139         0.32780
C         0.06415        -0.56520         0.08333
C        -1.14460         0.07327        -0.17560
C         1.30317         0.09583         0.31390
C        -2.44527        -0.72865        -0.25665
C         2.51549        -0.80441         0.37877
H         0.01215        -1.65624         0.21355
H        -2.38303        -1.84043        -0.18487
H        -3.00366        -0.25580        -1.09642
H        -3.10561        -0.59220         0.65480
H         2.21963        -1.89610         0.21040
H         3.27346        -0.68130        -0.37926
H         3.02881        -0.39938         1.31582
H        -0.52149         1.84250        -0.38350
15
step: 270  E_total = -1390.274742455  
O        -1.39146         1.41423        -0.41347
O         1.44044         1.34783         0.35295
C         0.02619        -0.55402         0.07288
C        -1.14745         0.06577        -0.19161
C         1.34412         0.11419         0.29824
C        -2.39392        -0.69344        -0.24731
C         2.51844        -0.77815         0.41164
H        -0.05738        -1.64364         0.24827
H        -2.28113        -1.79931        -0.36215
H        -3.08830        -0.27174        -1.04268
H        -2.98769        -0.56967         0.70696
H         2.20616        -1.82099         0.34528
H         3.31896        -0.63432        -0.41405
H         3.03875        -0.56162         1.38065
H        -0.51745         1.83808        -0.46721
15
step: 280  E_total = -1390.228362551  
O        -1.37480         1.40292        -0.43219
O         1.44405         1.36631         0.39106
C         0.00795        -0.53619         0.07605
C        -1.14335         0.07659        -0.21498
C         1.36311         0.13345         0.26897
C        -2.37976        -0.66645        -0.23551
C         2.54216        -0.75922         0.44356
H        -0.01073        -1.61608         0.24662
H        -2.10143        -1.71858        -0.58299
H        -3.10057        -0.33982        -1.00176
H        -2.83566        -0.52355         0.76868
H         2.21155        -1.86283         0.50898
H         3.21994        -0.52261        -0.37644
H         3.03858        -0.71666         1.44809
H        -0.53784         1.88335        -0.52732
15
step: 290  E_total = -1390.257055135  
O        -1.35716         1.39176        -0.45278
O         1.43844         1.38651         0.43036
C         0.05368        -0.50415         0.09018
C        -1.12412         0.10945        -0.23707
C         1.33936         0.14142         0.25158
C        -2.38883        -0.65854        -0.23293
C         2.55528        -0.75245         0.47868
H         0.07343        -1.59466         0.24428
H        -2.06665        -1.64217        -0.61807
H        -3.17088        -0.28388        -0.97852
H        -2.75757        -0.61702         0.84444
H         2.24320        -1.80163         0.53680
H         3.25408        -0.43184        -0.35414
H         3.06882        -0.68281         1.47803
H        -0.54446         1.92920        -0.57610
15
step: 300  E_total = -1390.261856522  
O        -1.34405         1.40419        -0.48197
O         1.43305         1.39195         0.46852
C         0.09698        -0.48196         0.10753
C        -1.08881         0.10564        -0.24150
C         1.32227         0.16815         0.26245
C        -2.40530        -0.65796        -0.23684
C         2.55504        -0.72652         0.49635
H         0.11911        -1.56481         0.23514
H        -2.16035        -1.72409        -0.56955
H        -3.18289        -0.17648        -0.83308
H        -2.70012        -0.80000         0.80587
H         2.25903        -1.81186         0.39348
H         3.31846        -0.45430        -0.26682
H         3.06876        -0.47018         1.45031
H        -0.51166         1.91742        -0.58751
15
step: 310  E_total = -1390.230666622  
O        -1.33908         1.43048        -0.51252
O         1.42902         1.40096         0.48771
C         0.09541        -0.48672         0.10640
C        -1.07652         0.07483        -0.23318
C         1.35657         0.19076         0.30167
C        -2.38897        -0.67231        -0.23572
C         2.54274        -0.69529         0.49086
H         0.10494        -1.59190         0.23789
H        -2.31842        -1.71968        -0.60413
H        -3.20518        -0.02329        -0.69677
H        -2.69654        -0.91059         0.87653
H         2.33909        -1.76141         0.32467
H         3.39500        -0.52687        -0.22189
H         2.95975        -0.31147         1.48113
H        -0.49384         1.87948        -0.51671
15
step: 320  E_total = -1390.362708674  
O        -1.32226         1.42160        -0.53427
O         1.43066         1.42599         0.50315
C         0.07862        -0.51132         0.09254
C        -1.10799         0.06261        -0.23283
C         1.38972         0.18553         0.34241
C        -2.37634        -0.67742        -0.21514
C         2.54922        -0.65616         0.47466
H         0.06454        -1.59311         0.27535
H        -2.43995        -1.63735        -0.80555
H        -3.16550         0.00477        -0.59946
H        -2.63470        -0.88133         0.81071
H         2.35607        -1.75598         0.41488
H         3.41492        -0.51391        -0.22298
H         2.85137        -0.36711         1.50071
H        -0.45892         1.89478        -0.43376
15
step: 330  E_total = -1390.353062358  
O        -1.29350         1.38672        -0.53750
O         1.43281         1.43744         0.50526
C         0.07492        -0.51330         0.08400
C        -1.12291         0.08700        -0.23525
C         1.36184         0.19717         0.35240
C        -2.38243        -0.68236        -0.21873
C         2.58349        -0.64012         0.47512
H         0.05494        -1.57894         0.33054
H        -2.44705        -1.49764        -0.99698
H        -3.23690        -0.00690        -0.55503
H        -2.60782        -0.91432         0.89975
H         2.28916        -1.74071         0.52454
H         3.36976        -0.39022        -0.27277
H         2.92110        -0.51221         1.56760
H        -0.48049         1.86260        -0.36412
15
step: 340  E_total = -1390.342876698  
O        -1.27089         1.36511        -0.53884
O         1.42273         1.43827         0.50076
C         0.07153        -0.49850         0.09031
C        -1.10648         0.09440        -0.22915
C         1.31772         0.20768         0.34299
C        -2.41284        -0.67577        -0.22322
C         2.60807        -0.64025         0.51642
H         0.09180        -1.58038         0.31552
H        -2.33475        -1.41892        -1.04431
H        -3.26701        -0.02092        -0.48181
H        -2.52939        -1.04473         0.77992
H         2.26191        -1.67446         0.46027
H         3.31155        -0.30107        -0.29092
H         3.11264        -0.57919         1.48872
H        -0.44464         1.87456        -0.29584
15
step: 350  E_total = -1390.284030043  
O        -1.24629         1.38006        -0.54810
O         1.40324         1.43378         0.48988
C         0.07926        -0.49726         0.10225
C        -1.09849         0.06721        -0.20100
C         1.30366         0.21247         0.34457
C        -2.42365        -0.64881        -0.24205
C         2.60058        -0.63246         0.55339
H         0.13273        -1.58647         0.22187
H        -2.28608        -1.47302        -1.05095
H        -3.30160         0.03532        -0.36880
H        -2.48983        -1.30727         0.72578
H         2.30392        -1.72646         0.27454
H         3.23222        -0.30094        -0.30773
H         3.26290        -0.48329         1.45827
H        -0.47812         1.88785        -0.31657
15
step: 360  E_total = -1390.284431473  
O        -1.23891         1.38774        -0.55659
O         1.38033         1.44102         0.46807
C         0.09304        -0.51565         0.11771
C        -1.11376         0.04568        -0.17086
C         1.33141         0.19798         0.37521
C        -2.40827        -0.65261        -0.25096
C         2.56194        -0.61964         0.55559
H         0.19144        -1.63700         0.16645
H        -2.37315        -1.38866        -1.03524
H        -3.26107         0.03464        -0.28336
H        -2.47772        -1.36529         0.59083
H         2.42534        -1.65355         0.27854
H         3.23022        -0.30916        -0.34250
H         3.17039        -0.36850         1.42674
H        -0.41085         1.89551        -0.36239
15
step: 370  E_total = -1390.177509508  
O        -1.22777         1.37323        -0.54085
O         1.36335         1.44607         0.43830
C         0.10131        -0.55313         0.12966
C        -1.11336         0.06269        -0.16092
C         1.34973         0.19025         0.41396
C        -2.39117        -0.66961        -0.25407
C         2.53597        -0.58320         0.51324
H         0.20160        -1.61424         0.16879
H        -2.51411        -1.30733        -1.26248
H        -3.27907         0.04583        -0.23155
H        -2.52294        -1.36539         0.63567
H         2.45854        -1.73573         0.44061
H         3.24422        -0.31369        -0.26934