4
step: 1  E_total = -474.260457377  
O         0.69234         0.00094         0.00001
C        -0.70302        -0.00188        -0.00005
H        -1.29750         0.94330         0.00022
H        -1.31495        -0.93580         0.00022
4
step: 2  E_total = -474.329167014  
O         0.68967         0.00170         0.00002
C        -0.69959        -0.00341        -0.00010
H        -1.28963         0.94551         0.00040
H        -1.32123        -0.93191         0.00040
4
step: 3  E_total = -474.407384687  
O         0.68656         0.00228         0.00003
C        -0.69576        -0.00457        -0.00013
H        -1.28243         0.94673         0.00053
H        -1.32479        -0.92846         0.00053
4
step: 4  E_total = -474.489747446  
O         0.68323         0.00270         0.00003
C        -0.69174        -0.00542        -0.00015
H        -1.27596         0.94717         0.00063
H        -1.32616        -0.92544         0.00063
4
step: 5  E_total = -474.572942235  
O         0.67977         0.00299         0.00004
C        -0.68765        -0.00602        -0.00017
H        -1.27014         0.94703         0.00070
H        -1.32586        -0.92282         0.00070
4
step: 6  E_total = -474.655013594  
O         0.67626         0.00319         0.00004
C        -0.68355        -0.00643        -0.00018
H        -1.26488         0.94651         0.00075
H        -1.32434        -0.92054         0.00074
4
step: 7  E_total = -474.734814317  
O         0.67273         0.00331         0.00004
C        -0.67945        -0.00670        -0.00018
H        -1.26008         0.94573         0.00077
H        -1.32192        -0.91855         0.00077
4
step: 8  E_total = -474.811656333  
O         0.66920         0.00338         0.00004
C        -0.67538        -0.00685        -0.00019
H        -1.25565         0.94481         0.00079
H        -1.31886        -0.91681         0.00079
4
step: 9  E_total = -474.885107660  
O         0.66568         0.00341         0.00004
C        -0.67133        -0.00693        -0.00019
H        -1.25152         0.94383         0.00080
H        -1.31535        -0.91532         0.00080
4
step: 10  E_total = -474.954878806  
O         0.66218         0.00340         0.00004
C        -0.66732        -0.00695        -0.00019
H        -1.24766         0.94284         0.00080
H        -1.31150        -0.91404         0.00080
