4
step: 1  T=      400.000K  Ek=     0.206816  Ep=    -0.112273  E_gap=    10.897100  Err=       0.0000000000000000  time_stamp= 1672868986.3276
 O         0.69285        -0.00096        -0.00011        -0.00385        -0.00181        -0.00021       -12.29577         0.09161         0.01188        -0.32056
 C        -0.70447        -0.00021         0.00050         0.00361        -0.00032         0.00095        10.46543         0.70100        -0.03440         0.10071
H        -1.31865         0.95961        -0.00210        -0.02273         0.03577        -0.00396         1.22650        -0.94463         0.01219         0.11154
H        -1.28462        -0.94183        -0.00210         0.04082        -0.00324        -0.00396         0.60385         0.15202         0.01033         0.10831
4
step: 2  T=      400.000K  Ek=     0.206816  Ep=    -0.141943  E_gap=    10.911965  Err=       0.0000000000000000  time_stamp= 1672868986.7018
 O         0.69072        -0.00168        -0.00020        -0.00635        -0.00166        -0.00020       -12.12938         0.15979         0.02044        -0.32060
 C        -0.70235        -0.00030         0.00088         0.00649        -0.00002         0.00087        10.26120         1.16584        -0.06007         0.09938
H        -1.32680         0.97319        -0.00367        -0.01644         0.02934        -0.00364         1.45819        -1.34251         0.02253         0.11337
H        -1.26783        -0.94301        -0.00367         0.03997        -0.00273        -0.00365         0.40999         0.01688         0.01710         0.10784
4
step: 3  T=      400.000K  Ek=     0.206816  Ep=    -0.193223  E_gap=    10.935736  Err=       0.0000000000000000  time_stamp= 1672868987.0756
 O         0.68759        -0.00234        -0.00028        -0.00828        -0.00145        -0.00017       -11.86832         0.22500         0.02839        -0.32001
 C        -0.69910        -0.00023         0.00123         0.00872         0.00037         0.00076        10.01404         1.52119        -0.08371         0.09865
H        -1.33226         0.98390        -0.00511        -0.00943         0.02116        -0.00316         1.62482        -1.63666         0.03262         0.11445
H        -1.25153        -0.94408        -0.00512         0.03687        -0.00260        -0.00320         0.22946        -0.10953         0.02270         0.10691
4
step: 4  T=      400.000K  Ek=     0.206816  Ep=    -0.265310  E_gap=    10.966728  Err=       0.0000000000000000  time_stamp= 1672868987.4493
 O         0.68371        -0.00290        -0.00034        -0.00956        -0.00119        -0.00014       -11.52026         0.28444         0.03534        -0.31885
 C        -0.69496         0.00002         0.00152         0.01024         0.00077         0.00063         9.71880         1.75491        -0.10410         0.09855
H        -1.33479         0.99111        -0.00635        -0.00260         0.01251        -0.00260         1.72705        -1.82677         0.04158         0.11473
H        -1.23661        -0.94521        -0.00639         0.03225        -0.00277        -0.00267         0.07441        -0.21258         0.02718         0.10558
4
step: 5  T=      400.000K  Ek=     0.206816  Ep=    -0.354672  E_gap=    11.002905  Err=       0.0000000000000000  time_stamp= 1672868987.8209
 O         0.67933        -0.00337        -0.00040        -0.01027        -0.00093        -0.00011       -11.09724         0.33591         0.04108        -0.31721
 C        -0.69024         0.00044         0.00177         0.01113         0.00113         0.00050         9.37428         1.86896        -0.12069         0.09902
H        -1.33451         0.99471        -0.00736         0.00343         0.00446        -0.00203         1.77086        -1.92218         0.04886         0.11428
H        -1.22365        -0.94648        -0.00743         0.02700        -0.00311        -0.00214        -0.04790        -0.28269         0.03075         0.10392
4
step: 6  T=      400.000K  Ek=     0.206816  Ep=    -0.456004  E_gap=    11.042322  Err=       0.0000000000000000  time_stamp= 1672868988.1938
 O         0.67469        -0.00372        -0.00044        -0.01056        -0.00070        -0.00008       -10.61292         0.37813         0.04556        -0.31520
 C        -0.68519         0.00101         0.00196         0.01154         0.00142         0.00037         8.98422         1.87543        -0.13349         0.10000
H        -1.33178         0.99502        -0.00813         0.00836        -0.00240        -0.00150         1.76443        -1.93665         0.05426         0.11321
H        -1.21289        -0.94793        -0.00827         0.02184        -0.00349        -0.00166        -0.13573        -0.31690         0.03367         0.10199
4
step: 7  T=      400.000K  Ek=     0.206816  Ep=    -0.563609  E_gap=    11.083403  Err=       0.0000000000000000  time_stamp= 1672868988.5740
 O         0.66995        -0.00398        -0.00047        -0.01060        -0.00049        -0.00006       -10.07978         0.41070         0.04884        -0.31293
 C        -0.68000         0.00170         0.00210         0.01165         0.00163         0.00027         8.55548         1.79156        -0.14283         0.10141
H        -1.32709         0.99258        -0.00869         0.01219        -0.00789        -0.00104         1.71595        -1.88439         0.05787         0.11165
H        -1.20426        -0.94957        -0.00890         0.01721        -0.00381        -0.00123        -0.19165        -0.31788         0.03613         0.09986
4
step: 8  T=      400.000K  Ek=     0.206816  Ep=    -0.672405  E_gap=    11.125025  Err=       0.0000000000000000  time_stamp= 1672868988.9426
 O         0.66523        -0.00416        -0.00049        -0.01050        -0.00031        -0.00004        -9.50733         0.43393         0.05106        -0.31048
 C        -0.67479         0.00247         0.00220         0.01160         0.00177         0.00018         8.09544         1.63570        -0.14917         0.10317
H        -1.32090         0.98798        -0.00906         0.01507        -0.01207        -0.00066         1.63252        -1.77802         0.05986         0.10973
H        -1.19752        -0.95134        -0.00937         0.01330        -0.00404        -0.00089        -0.22064        -0.29161         0.03825         0.09757
4
step: 9  T=      400.000K  Ek=     0.206816  Ep=    -0.778352  E_gap=    11.166473  Err=       0.0000000000000000  time_stamp= 1672868989.3101
 O         0.66057        -0.00426        -0.00050        -0.01035        -0.00017        -0.00002        -8.90175         0.44849         0.05239        -0.30791
 C        -0.66963         0.00328         0.00226         0.01150         0.00184         0.00011         7.61022         1.42489        -0.15296         0.10523
H        -1.31362         0.98179        -0.00928         0.01717        -0.01513        -0.00035         1.52002        -1.62806         0.06048         0.10754
H        -1.19237        -0.95318        -0.00969         0.01013        -0.00412        -0.00060        -0.22848        -0.24532         0.04009         0.09514
4
step: 10  T=      400.000K  Ek=     0.206816  Ep=    -0.878470  E_gap=    11.207335  Err=       0.0000000000000000  time_stamp= 1672868989.6780
 O         0.65600        -0.00431        -0.00051        -0.01020        -0.00005        -0.00001        -8.26626         0.45521         0.05298        -0.30527
 C        -0.66454         0.00411         0.00229         0.01139         0.00185         0.00005         7.10381         1.17396        -0.15461         0.10755
H        -1.30559         0.97449        -0.00937         0.01867        -0.01726        -0.00010         1.38324        -1.44316         0.05997         0.10515
H        -1.18849        -0.95501        -0.00990         0.00761        -0.00406        -0.00036        -0.22078        -0.18601         0.04165         0.09258
