4
step: 1  T=      240.110K  Ek=     0.124147  Ep=    -0.069283  E_gap=    10.880414  Err=       0.0000000000000000  time_stamp= 1672955487.1096
 O         0.69505        -0.00043        -0.00053         0.00039        -0.00106        -0.00132       -12.46099         0.03845         0.05531        -0.31987
 C        -0.70593         0.00035         0.00236         0.00114         0.00089         0.00588        10.57903         0.14638        -0.16002         0.10226
H        -1.31626         0.94373        -0.00985        -0.02441         0.00831        -0.02451         1.02497        -0.52166         0.05344         0.10948
H        -1.30451        -0.94108        -0.00985         0.00463        -0.00206        -0.02452         0.85700         0.33682         0.05127         0.10813
4
step: 2  T=      250.985K  Ek=     0.129769  Ep=    -0.074906  E_gap=    10.881501  Err=       0.0000000000000000  time_stamp= 1672955487.4801
 O         0.69461        -0.00085        -0.00106        -0.00261        -0.00105        -0.00130       -12.43242         0.07534         0.10897        -0.31929
 C        -0.70480         0.00071         0.00470         0.00451         0.00095         0.00580        10.40675         0.27632        -0.32058         0.10185
H        -1.32524         0.94665        -0.01961        -0.02020         0.00598        -0.02420         1.17579        -0.69675         0.10992         0.11005
H        -1.30200        -0.94165        -0.01961         0.00790        -0.00076        -0.02422         0.84988         0.34509         0.10169         0.10739
4
step: 3  T=      319.084K  Ek=     0.164979  Ep=    -0.110116  E_gap=    10.892165  Err=       0.0000000000000000  time_stamp= 1672955487.8310
 O         0.69297        -0.00126        -0.00157        -0.00559        -0.00102        -0.00127       -12.30862         0.11153         0.16137        -0.31806
 C        -0.70233         0.00111         0.00700         0.00781         0.00106         0.00567        10.17602         0.38309        -0.48028         0.10183
H        -1.33241         0.94851        -0.02920        -0.01545         0.00305        -0.02367         1.30115        -0.83469         0.16812         0.11008
H        -1.29819        -0.94169        -0.02922         0.01112         0.00056        -0.02374         0.83144         0.34007         0.15080         0.10616
4
step: 4  T=      443.953K  Ek=     0.229541  Ep=    -0.174678  E_gap=    10.912207  Err=       0.0000000000000000  time_stamp= 1672955488.1811
 O         0.69013        -0.00167        -0.00207        -0.00854        -0.00099        -0.00123       -12.08037         0.14733         0.21245        -0.31618
 C        -0.69855         0.00156         0.00924         0.01104         0.00120         0.00549         9.88112         0.46244        -0.63715         0.10225
H        -1.33760         0.94909        -0.03854        -0.01029        -0.00033        -0.02291         1.39775        -0.93129         0.22654         0.10953
H        -1.29311        -0.94121        -0.03860         0.01425         0.00182        -0.02308         0.80149         0.32152         0.19816         0.10440
4
step: 5  T=      622.871K  Ek=     0.322049  Ep=    -0.267186  E_gap=    10.941304  Err=       0.0000000000000000  time_stamp= 1672955488.5312
 O         0.68614        -0.00206        -0.00255        -0.01141        -0.00095        -0.00117       -11.73226         0.18285         0.26185        -0.31364
 C        -0.69350         0.00207         0.01139         0.01416         0.00135         0.00526         9.50938         0.51170        -0.78873         0.10317
H        -1.34064         0.94825        -0.04753        -0.00481        -0.00400        -0.02194         1.46298        -0.98418         0.28358         0.10838
H        -1.28679        -0.94023        -0.04768         0.01724         0.00299        -0.02224         0.75989         0.28963         0.24330         0.10209
4
step: 6  T=      850.231K  Ek=     0.439603  Ep=    -0.384740  E_gap=    10.979016  Err=       0.0000000000000000  time_stamp= 1672955488.8791
 O         0.68101        -0.00243        -0.00301        -0.01419        -0.00090        -0.00110       -11.24282         0.21802         0.30891        -0.31043
 C        -0.68722         0.00264         0.01345         0.01714         0.00152         0.00499         9.04157         0.52931        -0.93234         0.10465
H        -1.34145         0.94589        -0.05609         0.00085        -0.00779        -0.02076         1.49471        -0.99232         0.33766         0.10659
H        -1.27931        -0.93881        -0.05639         0.02006         0.00402        -0.02123         0.70654         0.24500         0.28577         0.09919
4
step: 7  T=     1116.944K  Ek=     0.577505  Ep=    -0.522641  E_gap=    11.024786  Err=       0.0000000000000000  time_stamp= 1672955489.2427
 O         0.67479        -0.00278        -0.00343        -0.01683        -0.00085        -0.00102       -10.58487         0.25254         0.35281        -0.30656
 C        -0.67978         0.00328         0.01538         0.01996         0.00169         0.00467         8.45242         0.51448        -1.06528         0.10679
H        -1.33996         0.94202        -0.06414         0.00657        -0.01152        -0.01938         1.49108        -0.95563         0.38732         0.10413
H        -1.27075        -0.93702        -0.06467         0.02265         0.00485        -0.02007         0.64137         0.18860         0.32516         0.09564
4
step: 8  T=     1409.937K  Ek=     0.728994  Ep=    -0.674130  E_gap=    11.077932  Err=       0.0000000000000000  time_stamp= 1672955489.6059
 O         0.66755        -0.00311        -0.00383        -0.01928        -0.00078        -0.00093        -9.72638         0.28586         0.39250        -0.30203
 C        -0.67125         0.00399         0.01718         0.02257         0.00185         0.00431         7.71163         0.46711        -1.18480         0.10967
H        -1.33619         0.93668        -0.07159         0.01221        -0.01503        -0.01782         1.45037        -0.87477         0.43118         0.10096
H        -1.26120        -0.93493        -0.07245         0.02496         0.00545        -0.01877         0.56438         0.12180         0.36113         0.09139
4
step: 9  T=     1711.886K  Ek=     0.885113  Ep=    -0.830250  E_gap=    11.137644  Err=       0.0000000000000000  time_stamp= 1672955489.9668
 O         0.65936        -0.00341        -0.00418        -0.02151        -0.00071        -0.00083        -8.63229         0.31711         0.42672        -0.29686
 C        -0.66173         0.00476         0.01883         0.02491         0.00199         0.00392         6.78560         0.38772        -1.28814         0.11341
H        -1.33020         0.93000        -0.07839         0.01762        -0.01815        -0.01610         1.37105        -0.75112         0.46801         0.09706
H        -1.25078        -0.93266        -0.07968         0.02697         0.00577        -0.01733         0.47564         0.04629         0.39341         0.08638
4
step: 10  T=     2001.332K  Ek=     1.034769  Ep=    -0.979905  E_gap=    11.202976  Err=       0.0000000000000000  time_stamp= 1672955490.3326
 O         0.65034        -0.00368        -0.00449        -0.02344        -0.00063        -0.00073        -7.26757         0.34506         0.45405        -0.29108
 C        -0.65133         0.00558         0.02032         0.02692         0.00209         0.00349         5.64029         0.27770        -1.37260         0.11810
H        -1.32210         0.92216        -0.08447         0.02265        -0.02072        -0.01426         1.25189        -0.58684         0.49676         0.09242
H        -1.23963        -0.93031        -0.08631         0.02861         0.00580        -0.01578         0.37540        -0.03593         0.42179         0.08056
4
step: 1  T=      331.235K  Ek=     0.171262  Ep=    -0.065180  E_gap=    10.878690  Err=       0.0000000000000000  time_stamp= 1699035801.1588
 O         0.69494        -0.00023         0.00055         0.00012        -0.00056         0.00137       -12.46202         0.01739        -0.05606        -0.32039
 C        -0.70574         0.00115        -0.00244         0.00158         0.00284        -0.00608        10.43751        -0.29033         0.16636         0.10077
H        -1.31007         0.94368         0.01019        -0.00913         0.00832         0.02536         0.93524        -0.46141        -0.05372         0.11009
H        -1.31121        -0.95385         0.01019        -0.01167        -0.03321         0.02536         1.08927         0.73436        -0.05658         0.10954
4
step: 2  T=      325.115K  Ek=     0.168097  Ep=    -0.062016  E_gap=    10.877808  Err=       0.0000000000000000  time_stamp= 1699035802.2558
 O         0.69439        -0.00045         0.00109        -0.00288        -0.00056         0.00135       -12.43457         0.03457        -0.11099        -0.32030
 C        -0.70444         0.00227        -0.00486         0.00489         0.00270        -0.00599        10.14726        -0.54560         0.33839         0.09897
H        -1.31301         0.94666         0.02029        -0.00542         0.00632         0.02504         1.00207        -0.58424        -0.10852         0.11124
H        -1.31505        -0.96657         0.02029        -0.00712        -0.02969         0.02501         1.28524         1.09527        -0.11888         0.11009
4
step: 3  T=      371.627K  Ek=     0.192146  Ep=    -0.086065  E_gap=    10.886286  Err=       0.0000000000000000  time_stamp= 1699035803.3596
 O         0.69264        -0.00067         0.00163        -0.00586        -0.00055         0.00131       -12.31124         0.05137        -0.16456        -0.31952
 C        -0.70183         0.00332        -0.00724         0.00809         0.00249        -0.00586         9.82337        -0.76128         0.51221         0.09775
H        -1.31441         0.94874         0.03022        -0.00149         0.00390         0.02451         1.05093        -0.67951        -0.16340         0.11180
H        -1.31691        -0.97760         0.03020        -0.00191        -0.02492         0.02442         1.43695         1.38943        -0.18425         0.10997
4
step: 4  T=      475.132K  Ek=     0.245662  Ep=    -0.139581  E_gap=    10.904054  Err=       0.0000000000000000  time_stamp= 1699035804.4738
 O         0.68970        -0.00089         0.00215        -0.00880        -0.00053         0.00127       -12.08232         0.06753        -0.21648        -0.31802
 C        -0.69797         0.00427        -0.00955         0.01119         0.00222        -0.00566         9.45946        -0.93667         0.68394         0.09716
H        -1.31420         0.94978         0.03990         0.00259         0.00117         0.02378         1.07968        -0.74381        -0.21730         0.11173
H        -1.31657        -0.98651         0.03982         0.00379        -0.01917         0.02358         1.54318         1.61294        -0.25015         0.10913
4
step: 5  T=      637.264K  Ek=     0.329491  Ep=    -0.223409  E_gap=    10.930998  Err=       0.0000000000000000  time_stamp= 1699035805.5986
 O         0.68560        -0.00110         0.00264        -0.01167        -0.00051         0.00121       -11.73199         0.08285        -0.26635        -0.31580
 C        -0.69288         0.00509        -0.01177         0.01416         0.00190        -0.00542         9.04140        -1.07286         0.84985         0.09729
H        -1.31233         0.94967         0.04924         0.00674        -0.00174         0.02285         1.08656        -0.77491        -0.26917         0.11098
H        -1.31387        -0.99294         0.04906         0.00982        -0.01270         0.02250         1.60403         1.76492        -0.31433         0.10753
4
step: 6  T=      855.743K  Ek=     0.442453  Ep=    -0.336372  E_gap=    10.966955  Err=       0.0000000000000000  time_stamp= 1699035806.7130
 O         0.68036        -0.00130         0.00311        -0.01445        -0.00049         0.00114       -11.23837         0.09714        -0.31360        -0.31285
 C        -0.68664         0.00578        -0.01388         0.01699         0.00154        -0.00512         8.54852        -1.17136         1.00633         0.09821
H        -1.30881         0.94839         0.05818         0.01087        -0.00470         0.02173         1.07008        -0.77159        -0.31795         0.10951
H        -1.30872        -0.99667         0.05782         0.01600        -0.00579         0.02119         1.61977         1.84580        -0.37478         0.10512
4
step: 7  T=     1123.416K  Ek=     0.580851  Ep=    -0.474769  E_gap=    11.011691  Err=       0.0000000000000000  time_stamp= 1699035807.8369
 O         0.67404        -0.00149         0.00355        -0.01709        -0.00047         0.00106       -10.57392         0.11035        -0.35749        -0.30916
 C        -0.67929         0.00632        -0.01586         0.01965         0.00115        -0.00478         7.95469        -1.23308         1.14981         0.10001
H        -1.30364         0.94592         0.06662         0.01490        -0.00758         0.02043         1.02898        -0.73348        -0.36263         0.10726
H        -1.30108        -0.99757         0.06601         0.02215         0.00130         0.01966         1.59025         1.85622        -0.42969         0.10189
4
step: 8  T=     1427.578K  Ek=     0.738115  Ep=    -0.632033  E_gap=    11.064868  Err=       0.0000000000000000  time_stamp= 1699035808.9573
 O         0.66670        -0.00167         0.00396        -0.01954        -0.00044         0.00097        -9.70628         0.12253        -0.39705        -0.30477
 C        -0.67092         0.00670        -0.01770         0.02210         0.00075        -0.00439         7.22956        -1.25785         1.27671         0.10279
H        -1.29689         0.94232         0.07452         0.01872        -0.01026         0.01898         0.96230        -0.66099        -0.40229         0.10419
H        -1.29100        -0.99563         0.07354         0.02811         0.00829         0.01793         1.51441         1.79632        -0.47737         0.09779
4
step: 9  T=     1749.646K  Ek=     0.904637  Ep=    -0.798556  E_gap=    11.126002  Err=       0.0000000000000000  time_stamp= 1699035810.0794
 O         0.65841        -0.00184         0.00433        -0.02176        -0.00041         0.00087        -8.60005         0.13395        -0.43113        -0.29972
 C        -0.66162         0.00692        -0.01937         0.02429         0.00035        -0.00396         6.34039        -1.24421         1.38342         0.10665
H        -1.28867         0.93771         0.08180         0.02224        -0.01259         0.01738         0.86939        -0.55534        -0.43612         0.10022
H        -1.27860        -0.99094         0.08035         0.03368         0.01493         0.01603         1.39027         1.66560        -0.51617         0.09284
4
step: 10  T=     2065.360K  Ek=     1.067874  Ep=    -0.961792  E_gap=    11.194414  Err=       0.0000000000000000  time_stamp= 1699035811.2083
 O         0.64929        -0.00200         0.00466        -0.02368        -0.00038         0.00076        -7.21983         0.14514        -0.45844        -0.29405
 C        -0.65149         0.00698        -0.02087         0.02617        -0.00004        -0.00351         5.25467        -1.18964         1.46638         0.11170
H        -1.27911         0.93225         0.08842         0.02535        -0.01446         0.01567         0.75011        -0.41869        -0.46345         0.09533
H        -1.26406        -0.98369         0.08637         0.03869         0.02093         0.01401         1.21505         1.46319        -0.54448         0.08703
4
step: 1  T=      645.149K  Ek=     0.333568  Ep=    -0.204248  E_gap=    10.926521  Err=       0.0000000000000000  time_stamp= 1700770939.7441
 O         0.68989         0.00042        -0.00003        -0.01247         0.00104        -0.00008       -12.05931        -0.03436         0.00336        -0.31722
 C        -0.69963        -0.00125         0.00015         0.01681        -0.00308         0.00036        10.14699         0.20455        -0.00989         0.10302
H        -1.30463         0.94779        -0.00061         0.00459         0.01839        -0.00152         0.98965        -0.56960         0.00331         0.10650
H        -1.30921        -0.93954        -0.00061        -0.00699         0.00190        -0.00152         0.92267         0.39940         0.00321         0.10770
4
step: 2  T=      905.224K  Ek=     0.468037  Ep=    -0.338717  E_gap=    10.973101  Err=       0.0000000000000000  time_stamp= 1700770939.9187
 O         0.68432         0.00083        -0.00007        -0.01533         0.00102        -0.00008       -11.57776        -0.06818         0.00668        -0.31392
 C        -0.69226        -0.00247         0.00029         0.01998        -0.00299         0.00036         9.50189         0.38998        -0.02002         0.10357
H        -1.30204         0.95472        -0.00121         0.00859         0.01581        -0.00150         1.09831        -0.78490         0.00685         0.10390
H        -1.31130        -0.93848        -0.00121        -0.00335         0.00356        -0.00150         0.97757         0.46310         0.00649         0.10645
4
step: 3  T=     1201.746K  Ek=     0.621351  Ep=    -0.492031  E_gap=    11.027920  Err=       0.0000000000000000  time_stamp= 1700770940.0764
 O         0.67763         0.00124        -0.00010        -0.01805         0.00100        -0.00008       -10.92030        -0.10114         0.00990        -0.30987
 C        -0.68365        -0.00364         0.00043         0.02291        -0.00284         0.00035         8.73131         0.55197        -0.03019         0.10486
H        -1.29776         0.96044        -0.00181         0.01294         0.01248        -0.00146         1.17428        -0.95456         0.01051         0.10049
H        -1.31189        -0.93670        -0.00181         0.00046         0.00541        -0.00147         1.01471         0.50373         0.00977         0.10453
4
step: 4  T=     1523.308K  Ek=     0.787611  Ep=    -0.658292  E_gap=    11.090153  Err=       0.0000000000000000  time_stamp= 1700770940.2323
 O         0.66988         0.00163        -0.00013        -0.02058         0.00098        -0.00008       -10.04909        -0.13278         0.01297        -0.30506
 C        -0.67393        -0.00474         0.00057         0.02558        -0.00264         0.00034         7.80370         0.68780        -0.04015         0.10701
H        -1.29168         0.96470        -0.00238         0.01752         0.00860        -0.00142         1.21410        -1.07389         0.01417         0.09618
H        -1.31093        -0.93415        -0.00239         0.00438         0.00737        -0.00142         1.03130         0.51888         0.01301         0.10187
4
step: 5  T=     1853.902K  Ek=     0.958542  Ep=    -0.829222  E_gap=    11.158938  Err=       0.0000000000000000  time_stamp= 1700770940.3895
 O         0.66116         0.00202        -0.00016        -0.02288         0.00094        -0.00007        -8.92273        -0.16258         0.01580        -0.29950
 C        -0.66320        -0.00575         0.00070         0.02792        -0.00240         0.00033         6.68290         0.79575        -0.04963         0.11018
H        -1.28374         0.96731        -0.00294         0.02218         0.00436        -0.00136         1.21509        -1.14018         0.01771         0.09091
H        -1.30838        -0.93081        -0.00295         0.00832         0.00934        -0.00137         1.02474         0.50702         0.01612         0.09840
4
step: 6  T=     2172.471K  Ek=     1.123254  Ep=    -0.993935  E_gap=    11.233385  Err=       0.0000000000000000  time_stamp= 1700770940.5452
 O         0.65158         0.00239        -0.00019        -0.02487         0.00090        -0.00007        -7.49974        -0.18999         0.01828        -0.29319
 C        -0.65160        -0.00666         0.00083         0.02986        -0.00214         0.00031         5.33199         0.87465        -0.05836         0.11451
H        -1.27394         0.96818        -0.00347         0.02677        -0.00003        -0.00128         1.17505        -1.15201         0.02102         0.08465
H        -1.30427        -0.92668        -0.00348         0.01219         0.01121        -0.00130         0.99270         0.46736         0.01906         0.09404
4
step: 7  T=     2453.283K  Ek=     1.268445  Ep=    -1.139126  E_gap=    11.312572  Err=       0.0000000000000000  time_stamp= 1700770940.7017
 O         0.64127         0.00274        -0.00021        -0.02648         0.00085        -0.00006        -5.74386        -0.21452         0.02030        -0.28621
 C        -0.63931        -0.00746         0.00095         0.03133        -0.00185         0.00029         3.71868         0.92355        -0.06604         0.12011
H        -1.26233         0.96729        -0.00397         0.03112        -0.00436        -0.00120         1.09197        -1.10886         0.02400         0.07737
H        -1.29863        -0.92184        -0.00399         0.01588         0.01287        -0.00122         0.93321         0.39982         0.02174         0.08873
4
step: 8  T=     2667.457K  Ek=     1.379182  Ep=    -1.249862  E_gap=    11.395522  Err=       0.0000000000000000  time_stamp= 1700770940.8579
 O         0.63040         0.00307        -0.00024        -0.02762         0.00080        -0.00006        -3.63112        -0.23584         0.02174        -0.27864
 C        -0.62654        -0.00814         0.00106         0.03223        -0.00155         0.00027         1.82218         0.94172        -0.07241         0.12709
H        -1.24905         0.96470        -0.00443         0.03507        -0.00842        -0.00110         0.96416        -1.01090         0.02655         0.06911
H        -1.29156        -0.91639        -0.00446         0.01930         0.01423        -0.00114         0.84479         0.30502         0.02412         0.08244
4
step: 9  T=     2785.882K  Ek=     1.440412  Ep=    -1.311093  E_gap=    11.481161  Err=       0.0000000000000000  time_stamp= 1700770941.0149
 O         0.61918         0.00337        -0.00026        -0.02821         0.00074        -0.00005        -1.15818        -0.25392         0.02250        -0.27064
 C        -0.61353        -0.00870         0.00116         0.03248        -0.00125         0.00024        -0.35900         0.92875        -0.07722         0.13549
H        -1.23428         0.96056        -0.00485         0.03844        -0.01200        -0.00100         0.79047        -0.85916         0.02858         0.05994
H        -1.28320        -0.91047        -0.00490         0.02231         0.01517        -0.00104         0.72670         0.18433         0.02614         0.07521
4
step: 10  T=     2783.551K  Ek=     1.439207  Ep=    -1.309888  E_gap=    11.568263  Err=       0.0000000000000000  time_stamp= 1700770941.1708
 O         0.60784         0.00366        -0.00028        -0.02815         0.00068        -0.00005         1.64907        -0.26909         0.02251        -0.26240
 C        -0.60057        -0.00914         0.00126         0.03198        -0.00096         0.00022        -2.79935         0.88498        -0.08028         0.14524
H        -1.21830         0.95510        -0.00522         0.04106        -0.01491        -0.00088         0.57096        -0.65593         0.03002         0.05004
H        -1.27372        -0.90426        -0.00530         0.02482         0.01560        -0.00094         0.57933         0.04004         0.02775         0.06712
