4
step: 1  T=      679.064K  Ek=  0.351103240  Ep= -1.348199483  E_gap=    11.623979  Err=       0.0000000000000000  time_stamp= 1758753278.4507
O        -0.60650        -0.00062        -0.00031
C         0.60698        -0.00044         0.00141
H         1.20812         0.95208        -0.00546
H         1.18620        -0.93706        -0.00646
4
step: 2  T=      614.491K  Ek=  0.317716517  Ep= -1.317260609  E_gap=    11.650804  Err=       0.0000000000000000  time_stamp= 1758753278.5141
O        -0.60310        -0.00119        -0.00067
C         0.60450        -0.00085         0.00288
H         1.20645         0.96360        -0.01133
H         1.16343        -0.93450        -0.01232
4
step: 3  T=      540.598K  Ek=  0.279510690  Ep= -1.272970384  E_gap=    11.673747  Err=       0.0000000000000000  time_stamp= 1758753278.5765
O        -0.59989        -0.00173        -0.00103
C         0.60219        -0.00117         0.00449
H         1.20434         0.97408        -0.01808
H         1.14219        -0.93272        -0.01915
4
step: 4  T=      449.224K  Ek=  0.232266947  Ep= -1.222749217  E_gap=    11.691985  Err=       0.0000000000000000  time_stamp= 1758753278.6541
O        -0.59699        -0.00222        -0.00153
C         0.60023        -0.00129         0.00624
H         1.20105         0.98386        -0.02449
H         1.12277        -0.93318        -0.02567
4
step: 5  T=      356.517K  Ek=  0.184333659  Ep= -1.173960125  E_gap=    11.705195  Err=       0.0000000000000000  time_stamp= 1758753278.7183
O        -0.59444        -0.00263        -0.00195
C         0.59855        -0.00121         0.00791
H         1.19740         0.99242        -0.03103
H         1.10595        -0.93628        -0.03229
4
step: 6  T=      286.493K  Ek=  0.148128253  Ep= -1.132059579  E_gap=    11.713803  Err=       0.0000000000000000  time_stamp= 1758753278.7827
O        -0.59252        -0.00309        -0.00233
C         0.59770        -0.00084         0.00950
H         1.19224         0.99879        -0.03705
H         1.09068        -0.93978        -0.03913
4
step: 7  T=      238.986K  Ek=  0.123565120  Ep= -1.101741724  E_gap=    11.717186  Err=       0.0000000000000000  time_stamp= 1758753278.8457
O        -0.59096        -0.00338        -0.00270
C         0.59708        -0.00030         0.01113
H         1.18685         1.00387        -0.04370
H         1.07864        -0.94664        -0.04594
4
step: 8  T=      224.256K  Ek=  0.115949241  Ep= -1.086432025  E_gap=    11.715475  Err=       0.0000000000000000  time_stamp= 1758753278.9118
O        -0.58991        -0.00371        -0.00320
C         0.59687         0.00066         0.01288
H         1.18131         1.00674        -0.04976
H         1.07005        -0.95569        -0.05299
4
step: 9  T=      229.539K  Ek=  0.118681083  Ep= -1.085262047  E_gap=    11.711005  Err=       0.0000000000000000  time_stamp= 1758753278.9773
O        -0.58924        -0.00389        -0.00356
C         0.59716         0.00185         0.01449
H         1.17322         1.00649        -0.05569
H         1.06420        -0.96686        -0.06047
4
step: 10  T=      229.429K  Ek=  0.118623809  Ep= -1.090038894  E_gap=    11.702264  Err=       0.0000000000000000  time_stamp= 1758753279.0434
O        -0.58902        -0.00401        -0.00391
C         0.59781         0.00316         0.01605
H         1.16527         1.00468        -0.06145
H         1.06077        -0.97868        -0.06765
