4
step: 1  T=      400.000K  Ek=     0.206816  Ep=     2.166748  E_gap=    12.767467  Err=       0.0000000000000000  time_stamp= 1672955491.1461
 B        -0.01406         0.00164         0.00017         0.00218         0.00544         0.00058         2.06516        -0.12561        -0.01412         0.28786
H         1.38406        -0.01223        -0.00056        -0.01624        -0.04057        -0.00185        -4.56711         0.09144         0.00488        -0.10325
H        -0.62336         1.03335        -0.00065        -0.02601         0.00652        -0.00216         1.28940        -1.82682         0.00463        -0.08971
H        -0.60986        -1.03872        -0.00065         0.01882        -0.02433        -0.00216         1.21255         1.86098         0.00461        -0.09490
4
step: 2  T=      400.000K  Ek=     0.206816  Ep=     2.142942  E_gap=    12.791091  Err=       0.0000000000000000  time_stamp= 1672955491.5240
 B        -0.01304         0.00381         0.00040         0.00274         0.00508         0.00054         1.92691        -0.29215        -0.03295         0.28721
H         1.37407        -0.02839        -0.00130        -0.03179        -0.03786        -0.00172        -4.48437         0.21287         0.01135        -0.10261
H        -0.63278         1.03456        -0.00151        -0.01981        -0.00057        -0.00202         1.36960        -1.89100         0.01083        -0.08618
H        -0.60140        -1.04702        -0.00151         0.02217        -0.01609        -0.00202         1.18785         1.97028         0.01077        -0.09843
4
step: 3  T=      400.000K  Ek=     0.206816  Ep=     2.079058  E_gap=    12.831080  Err=       0.0000000000000000  time_stamp= 1672955491.8916
 B        -0.01181         0.00582         0.00062         0.00298         0.00433         0.00046         1.79800        -0.44758        -0.05057         0.28690
H         1.35792        -0.04337        -0.00198        -0.04257        -0.03220        -0.00146        -4.34347         0.32724         0.01739        -0.10187
H        -0.63965         1.03288        -0.00231        -0.01267        -0.00684        -0.00172         1.41428        -1.89970         0.01666        -0.08301
H        -0.59162        -1.05195        -0.00231         0.02327        -0.00739        -0.00172         1.13119         2.02004         0.01651        -0.10202
4
step: 4  T=      400.000K  Ek=     0.206816  Ep=     1.985463  E_gap=    12.880930  Err=       0.0000000000000000  time_stamp= 1672955492.2531
 B        -0.01049         0.00752         0.00080         0.00299         0.00344         0.00036         1.67784        -0.57902        -0.06549         0.28699
H         1.33756        -0.05600        -0.00255        -0.04885        -0.02554        -0.00115        -4.15032         0.42577         0.02253        -0.10116
H        -0.64364         1.02869        -0.00299        -0.00601        -0.01166        -0.00137         1.42233        -1.85766         0.02161        -0.08042
H        -0.58145        -1.05336        -0.00299         0.02279         0.00027        -0.00137         1.05015         2.01092         0.02135        -0.10541
4
step: 5  T=      400.000K  Ek=     0.206816  Ep=     1.874787  E_gap=    12.935666  Err=       0.0000000000000000  time_stamp= 1672955492.6221
 B        -0.00917         0.00886         0.00094         0.00288         0.00260         0.00027         1.56223        -0.68138        -0.07714         0.28747
H         1.31484        -0.06589        -0.00299        -0.05193        -0.01919        -0.00085        -3.91173         0.50468         0.02657        -0.10053
H        -0.64495         1.02261        -0.00352        -0.00049        -0.01503        -0.00103         1.39733        -1.77371         0.02547        -0.07847
H        -0.57153        -1.05171        -0.00352         0.02151         0.00635        -0.00103         0.95217         1.95041         0.02509        -0.10848
4
step: 6  T=      400.000K  Ek=     0.206816  Ep=     1.757918  E_gap=    12.992480  Err=       0.0000000000000000  time_stamp= 1672955492.9925
 B        -0.00791         0.00985         0.00104         0.00274         0.00187         0.00019         1.44583        -0.75512        -0.08558         0.28834
H         1.29107        -0.07318        -0.00331        -0.05311        -0.01372        -0.00060        -3.63295         0.56392         0.02952        -0.10002
H        -0.64407         1.01523        -0.00391         0.00381        -0.01728        -0.00074         1.34445        -1.65654         0.02827        -0.07715
H        -0.56220        -1.04768        -0.00392         0.01996         0.01090        -0.00075         0.84267         1.84774         0.02779        -0.11117
4
step: 7  T=      400.000K  Ek=     0.206816  Ep=     1.642859  E_gap=    13.050021  Err=       0.0000000000000000  time_stamp= 1672955493.3632
 B        -0.00671         0.01054         0.00111         0.00259         0.00128         0.00013         1.32336        -0.80328        -0.09118         0.28956
H         1.26705        -0.07824        -0.00353        -0.05330        -0.00922        -0.00038        -3.31704         0.60519         0.03149        -0.09966
H        -0.64152         1.00705        -0.00419         0.00707        -0.01874        -0.00051         1.26864        -1.51311         0.03014        -0.07639
H        -0.55357        -1.04190        -0.00419         0.01843         0.01421        -0.00051         0.72504         1.71120         0.02956        -0.11352
4
step: 8  T=      400.000K  Ek=     0.206816  Ep=     1.535086  E_gap=    13.107644  Err=       0.0000000000000000  time_stamp= 1672955493.7296
 B        -0.00558         0.01100         0.00116         0.00247         0.00080         0.00008         1.19004        -0.82961        -0.09437         0.29111
H         1.24318        -0.08146        -0.00366        -0.05304        -0.00556        -0.00021        -2.96521         0.63077         0.03259        -0.09945
H        -0.63772         0.99840        -0.00437         0.00954        -0.01966        -0.00032         1.17393        -1.34855         0.03122        -0.07611
H        -0.54564        -1.03491        -0.00438         0.01702         0.01660        -0.00032         0.60124         1.54740         0.03056        -0.11555
4
step: 9  T=      400.000K  Ek=     0.206816  Ep=     1.438283  E_gap=    13.164992  Err=       0.0000000000000000  time_stamp= 1672955494.0958
 B        -0.00450         0.01126         0.00118         0.00237         0.00042         0.00004         1.04158        -0.83764        -0.09554         0.29296
H         1.21970        -0.08320        -0.00372        -0.05260        -0.00258        -0.00007        -2.57742         0.64277         0.03296        -0.09939
H        -0.63301         0.98950        -0.00447         0.01142        -0.02023        -0.00016         1.06343        -1.16648         0.03165        -0.07624
H        -0.53837        -1.02708        -0.00448         0.01576         0.01832        -0.00017         0.47241         1.36135         0.03093        -0.11733
4
step: 10  T=      400.000K  Ek=     0.206816  Ep=     1.354962  E_gap=    13.221837  Err=       0.0000000000000000  time_stamp= 1672955494.4600
 B        -0.00348         0.01137         0.00119         0.00229         0.00010         0.00000         0.87425        -0.83040        -0.09504         0.29508
H         1.19668        -0.08374        -0.00372        -0.05212        -0.00010         0.00005        -2.15294         0.64302         0.03269        -0.09946
H        -0.62763         0.98051        -0.00451         0.01290        -0.02056        -0.00003         0.93942        -0.96950         0.03156        -0.07672
H        -0.53171        -1.01871        -0.00453         0.01464         0.01957        -0.00004         0.33928         1.15688         0.03079        -0.11890
4
step: 1  T=      400.000K  Ek=     0.206816  Ep=     2.186814  E_gap=    12.695920  Err=       0.0000000000000000  time_stamp= 1699035813.4910
B        -0.01688         0.00072        -0.00048        -0.00756         0.00254        -0.00168         2.36534        -0.05074         0.03864         0.28915
H         1.39419        -0.00570         0.00153         0.01843        -0.02002         0.00539        -4.64298         0.04268        -0.01322        -0.10735
H        -0.60986         1.03273         0.00179         0.01979         0.00494         0.00630         1.15933        -1.73700        -0.01272        -0.08988
H        -0.60332        -1.03478         0.00179         0.04283        -0.01218         0.00630         1.11832         1.74505        -0.01270        -0.09193
4
step: 2  T=      400.000K  Ek=     0.206816  Ep=     2.191146  E_gap=    12.623993  Err=       0.0000000000000000  time_stamp= 1699035814.6062
B        -0.01973         0.00174        -0.00114        -0.00674         0.00254        -0.00167         2.63044        -0.12211         0.09194         0.29035
H         1.39801        -0.01367         0.00368         0.00061        -0.01996         0.00536        -4.66434         0.10258        -0.03192        -0.11323
H        -0.60106         1.03338         0.00430         0.02431        -0.00162         0.00628         1.06473        -1.68199        -0.03007        -0.08596
H        -0.58533        -1.03832         0.00430         0.04734        -0.00565         0.00628         0.96917         1.70153        -0.02995        -0.09116
4
step: 3  T=      400.000K  Ek=     0.206816  Ep=     2.154663  E_gap=    12.578938  Err=       0.0000000000000000  time_stamp= 1699035815.7143
B        -0.02224         0.00274        -0.00181        -0.00531         0.00229        -0.00150         2.90282        -0.19544         0.14410         0.29182
H         1.39468        -0.02158         0.00580        -0.01586        -0.01795         0.00480        -4.63385         0.16309        -0.05062        -0.11907
H        -0.59052         1.03144         0.00679         0.02597        -0.00724         0.00566         0.93934        -1.57247        -0.04689        -0.08224
H        -0.56565        -1.03927         0.00679         0.04679         0.00063         0.00566         0.79169         1.60481        -0.04659        -0.09052
4
step: 4  T=      400.000K  Ek=     0.206816  Ep=     2.085426  E_gap=    12.564300  Err=       0.0000000000000000  time_stamp= 1699035816.8218
B        -0.02415         0.00364        -0.00240        -0.00366         0.00191        -0.00125         3.15529        -0.26391         0.18991         0.29331
H         1.38479        -0.02863         0.00768        -0.02898        -0.01491         0.00396        -4.55432         0.21897        -0.06764        -0.12425
H        -0.57941         1.02734         0.00902         0.02538        -0.01124         0.00472         0.79571        -1.41875        -0.06139        -0.07902
H        -0.54633        -1.03779         0.00902         0.04285         0.00563         0.00473         0.60332         1.46369        -0.06089        -0.09005
4
step: 5  T=      400.000K  Ek=     0.206816  Ep=     1.994933  E_gap=    12.577472  Err=       0.0000000000000000  time_stamp= 1699035817.9365
B        -0.02539         0.00439        -0.00288        -0.00208         0.00151        -0.00098         3.36566        -0.32283         0.22673         0.29439
H         1.36971        -0.03443         0.00921        -0.03855        -0.01167         0.00306        -4.43083         0.26721        -0.08215        -0.12860
H        -0.56865         1.02176         0.01086         0.02349        -0.01362         0.00373         0.64616        -1.23605        -0.07264        -0.07612
H        -0.52873        -1.03442         0.01086         0.03740         0.00911         0.00373         0.41901         1.29167        -0.07193        -0.08966
4
step: 6  T=      400.000K  Ek=     0.206816  Ep=     1.893530  E_gap=    12.615537  Err=       0.0000000000000000  time_stamp= 1699035819.0176
B        -0.02599         0.00497        -0.00326        -0.00070         0.00114        -0.00073         3.52911        -0.37171         0.25454         0.29605
H         1.35090        -0.03889         0.01037        -0.04525        -0.00867         0.00224        -4.26441         0.30680        -0.09344        -0.13148
H        -0.55876         1.01536         0.01229         0.02105        -0.01474         0.00282         0.49497        -1.03585        -0.08096        -0.07467
H        -0.51345        -1.02979         0.01230         0.03170         0.01122         0.00282         0.24033         1.10076        -0.08014        -0.08990
4
step: 7  T=      400.000K  Ek=     0.206816  Ep=     1.788786  E_gap=    12.671270  Err=       0.0000000000000000  time_stamp= 1699035820.1223
B        -0.02601         0.00540        -0.00354         0.00047         0.00081        -0.00052         3.63165        -0.40875         0.27389         0.29736
H         1.32953        -0.04212         0.01120        -0.04990        -0.00606         0.00152        -4.05862         0.33781        -0.10200        -0.13353
H        -0.54996         1.00867         0.01336         0.01848        -0.01493         0.00204         0.35053        -0.83205        -0.08640        -0.07354
H        -0.50058        -1.02445         0.01337         0.02635         0.01228         0.00204         0.07643         0.90300        -0.08549        -0.09028
4
step: 8  T=      400.000K  Ek=     0.206816  Ep=     1.685829  E_gap=    12.740477  Err=       0.0000000000000000  time_stamp= 1699035821.2639
B        -0.02556         0.00569        -0.00373         0.00145         0.00054        -0.00035         3.67130        -0.43486         0.28616         0.29859
H         1.30647        -0.04429         0.01173        -0.05314        -0.00386         0.00091        -3.81215         0.36078        -0.10794        -0.13472
H        -0.54230         1.00206         0.01411         0.01600        -0.01451         0.00139         0.21442        -0.63236        -0.08959        -0.07298
H        -0.48998        -1.01885         0.01412         0.02155         0.01256         0.00140        -0.07356         0.70644        -0.08862        -0.09089
4
step: 9  T=      400.000K  Ek=     0.206816  Ep=     1.588070  E_gap=    12.819196  Err=       0.0000000000000000  time_stamp= 1699035822.3246
B        -0.02472         0.00588        -0.00384         0.00228         0.00032        -0.00020         3.64448        -0.45074         0.29261         0.29980
H         1.28229        -0.04556         0.01201        -0.05542        -0.00202         0.00041        -3.52335         0.37636        -0.11151        -0.13518
H        -0.53573         0.99577         0.01459         0.01368        -0.01367         0.00086         0.08832        -0.44334        -0.09106        -0.07289
H        -0.48142        -1.01328         0.01461         0.01733         0.01230         0.00087        -0.20945         0.51772        -0.09004        -0.09172
4
step: 10  T=      400.000K  Ek=     0.206816  Ep=     1.497874  E_gap=    12.904229  Err=       0.0000000000000000  time_stamp= 1699035823.3565
B        -0.02355         0.00597        -0.00390         0.00297         0.00013        -0.00008         3.54771        -0.45728         0.29433         0.30099
H         1.25742        -0.04608         0.01209        -0.05703        -0.00047        -0.00002        -3.18964         0.38510        -0.11295        -0.13507
H        -0.53020         0.98997         0.01487         0.01152        -0.01256         0.00043        -0.02673        -0.26976        -0.09122        -0.07320
H        -0.47465        -1.00797         0.01489         0.01361         0.01165         0.00044        -0.33133         0.34194        -0.09016        -0.09272
4
step: 1  T=      400.000K  Ek=     0.206816  Ep=     2.201857  E_gap=    12.687096  Err=       0.0000000000000000  time_stamp= 1700770948.9641
B        -0.01699         0.00042        -0.00199        -0.00583         0.00108        -0.00513         2.42916         0.03347         0.15925         0.28971
H         1.40075        -0.00637         0.00639         0.03046        -0.01646         0.01649        -4.69147         0.04768        -0.05585        -0.10671
H        -0.61415         1.02798         0.00745         0.00344        -0.00858         0.01926         1.17917        -1.67809        -0.05204        -0.09041
H        -0.60437        -1.02606         0.00745         0.02866         0.01341         0.01926         1.08314         1.59693        -0.05136        -0.09259
4
step: 2  T=      400.000K  Ek=     0.206816  Ep=     2.218095  E_gap=    12.623810  Err=       0.0000000000000000  time_stamp= 1700770949.1386
B        -0.01915         0.00085        -0.00403        -0.00513         0.00115        -0.00526         2.69529         0.07429         0.31959         0.29119
H         1.40934        -0.01292         0.01294         0.01291        -0.01686         0.01685        -4.74830         0.09660        -0.11314        -0.10987
H        -0.61187         1.02326         0.01512         0.00819        -0.01543         0.01976         1.12416        -1.57053        -0.10468        -0.08847
H        -0.59208        -1.01947         0.01512         0.03388         0.01995         0.01977         0.92886         1.39964        -0.10177        -0.09285
4
step: 3  T=      400.000K  Ek=     0.206816  Ep=     2.196390  E_gap=    12.582710  Err=       0.0000000000000000  time_stamp= 1700770949.2951
B        -0.02101         0.00132        -0.00611        -0.00391         0.00113        -0.00487         2.98448         0.12367         0.47888         0.29304
H         1.41087        -0.01959         0.01959        -0.00503        -0.01561         0.01552        -4.75514         0.14719        -0.17203        -0.11302
H        -0.60773         1.01589         0.02294         0.01173        -0.02011         0.01833         1.03421        -1.40469        -0.15700        -0.08669
H        -0.57782        -1.01042         0.02295         0.03529         0.02361         0.01836         0.73645         1.13384        -0.14985        -0.09332
4
step: 4  T=      400.000K  Ek=     0.206816  Ep=     2.143044  E_gap=    12.570246  Err=       0.0000000000000000  time_stamp= 1700770949.4509
B        -0.02236         0.00178        -0.00802        -0.00250         0.00105        -0.00417         3.27158         0.17560         0.62069         0.29504
H         1.40521        -0.02572         0.02567        -0.02066        -0.01334         0.01316        -4.71292         0.19522        -0.22726        -0.11581
H        -0.60225         1.00677         0.03016         0.01380        -0.02238         0.01574         0.91705        -1.19479        -0.20329        -0.08523
H        -0.56314        -1.00011         0.03018         0.03364         0.02441         0.01580         0.52429         0.82397        -0.19014        -0.09400
4
step: 5  T=      400.000K  Ek=     0.206816  Ep=     2.067636  E_gap=    12.587158  Err=       0.0000000000000000  time_stamp= 1700770949.6073
B        -0.02313         0.00221        -0.00964        -0.00110         0.00096        -0.00336         3.53174         0.22166         0.73622         0.29702
H         1.39334        -0.03091         0.03076        -0.03302        -0.01072         0.01045        -4.62474         0.23799        -0.27551        -0.11802
H        -0.59603         0.99690         0.03630         0.01461        -0.02271         0.01276         0.78262        -0.95882        -0.24040        -0.08414
H        -0.54928        -0.98971         0.03636         0.03019         0.02308         0.01286         0.31037         0.49918        -0.22030        -0.09486
4
step: 6  T=      400.000K  Ek=     0.206816  Ep=     1.978782  E_gap=    12.629965  Err=       0.0000000000000000  time_stamp= 1700770949.7630
B        -0.02331         0.00261        -0.01093         0.00017         0.00088        -0.00258         3.74434         0.25373         0.82384         0.29886
H         1.37659        -0.03501         0.03473        -0.04224        -0.00815         0.00780        -4.49305         0.27425        -0.31531        -0.11955
H        -0.58959         0.98708         0.04122         0.01450        -0.02168         0.00986         0.64020        -0.71371        -0.26769        -0.08344
H        -0.53697        -0.98010         0.04133         0.02594         0.02042         0.01003         0.10850         0.18572        -0.24084        -0.09587
4
step: 7  T=      400.000K  Ek=     0.206816  Ep=     1.882775  E_gap=    12.693484  Err=       0.0000000000000000  time_stamp= 1700770949.9196
B        -0.02298         0.00298        -0.01191         0.00127         0.00080        -0.00188         3.89358         0.26594         0.88612         0.30048
H         1.35625        -0.03806         0.03761        -0.04889        -0.00583         0.00540        -4.31881         0.30366        -0.34636        -0.12042
H        -0.58330         0.97786         0.04496         0.01380        -0.01981         0.00728         0.49740        -0.47348        -0.28607        -0.08307
H        -0.52651        -0.97179         0.04516         0.02151         0.01703         0.00751        -0.07216        -0.09612        -0.25369        -0.09699
4
step: 8  T=      400.000K  Ek=     0.206816  Ep=     1.783950  E_gap=    12.772380  Err=       0.0000000000000000  time_stamp= 1700770950.0752
B        -0.02219         0.00332        -0.01260         0.00220         0.00074        -0.00128         3.96784         0.25543         0.92721         0.30187
H         1.33339        -0.04016         0.03950        -0.05351        -0.00380         0.00332        -4.10166         0.32627        -0.36895        -0.12069
H        -0.57740         0.96958         0.04765         0.01271        -0.01745         0.00507         0.36013        -0.24906        -0.29711        -0.08299
H        -0.51796        -0.96505         0.04797         0.01723         0.01334         0.00537        -0.22631        -0.33265        -0.26115        -0.09819
4
step: 9  T=      400.000K  Ek=     0.206816  Ep=     1.685451  E_gap=    12.861784  Err=       0.0000000000000000  time_stamp= 1700770950.2312
B        -0.02103         0.00364        -0.01305         0.00298         0.00068        -0.00078         3.95909         0.22244         0.95131         0.30304
H         1.30885        -0.04143         0.04055        -0.05660        -0.00208         0.00155        -3.84034         0.34231        -0.38358        -0.12046
H        -0.57204         0.96241         0.04946         0.01140        -0.01484         0.00323         0.23280        -0.04847        -0.30251        -0.08314
H        -0.51124        -0.95997         0.04992         0.01328         0.00965         0.00359        -0.35154        -0.51628        -0.26522        -0.09944
4
step: 10  T=      400.000K  Ek=     0.206816  Ep=     1.589857  E_gap=    12.957460  Err=       0.0000000000000000  time_stamp= 1700770950.3864
B        -0.01956         0.00392        -0.01329         0.00362         0.00062        -0.00036         3.86222         0.16972         0.96202         0.30403
H         1.28327        -0.04200         0.04087        -0.05853        -0.00062         0.00005        -3.53303         0.35202        -0.39083        -0.11982
H        -0.56730         0.95643         0.05052         0.00999        -0.01216         0.00172         0.11846         0.12293        -0.30381        -0.08349
H        -0.50620        -0.95651         0.05115         0.00973         0.00615         0.00213        -0.44765        -0.64467        -0.26738        -0.10071
