4
step: 1  T=      308.024K  Ek=  0.159260616  Ep= -0.087423297  E_gap=    10.886559  Err=       0.0000000000000000  time_stamp= 1758753276.9911
O         0.69432        -0.00058        -0.00053
C        -0.70688         0.00105         0.00234
H        -1.30476         0.94206        -0.00976
H        -1.29318        -0.94537        -0.00976
4
step: 2  T=      354.506K  Ek=  0.183293651  Ep= -0.111456332  E_gap=    10.893622  Err=       0.0000000000000000  time_stamp= 1758753277.0557
O         0.69316        -0.00115        -0.00105
C        -0.70666         0.00209         0.00466
H        -1.30253         0.94360        -0.01944
H        -1.27949        -0.95025        -0.01944
4
step: 3  T=      456.135K  Ek=  0.235840166  Ep= -0.164002846  E_gap=    10.910217  Err=       0.0000000000000000  time_stamp= 1758753277.1186
O         0.69081        -0.00172        -0.00156
C        -0.70505         0.00313         0.00694
H        -1.29907         0.94460        -0.02896
H        -1.26481        -0.95467        -0.02897
4
step: 4  T=      609.766K  Ek=  0.315273433  Ep= -0.243436114  E_gap=    10.936250  Err=       0.0000000000000000  time_stamp= 1758753277.1798
O         0.68728        -0.00227        -0.00206
C        -0.70205         0.00416         0.00916
H        -1.29443         0.94504        -0.03826
H        -1.24929        -0.95863        -0.03828
4
step: 5  T=      810.217K  Ek=  0.418914607  Ep= -0.347077288  E_gap=    10.971447  Err=       0.0000000000000000  time_stamp= 1758753277.2465
O         0.68262        -0.00280        -0.00253
C        -0.69767         0.00517         0.01131
H        -1.28869         0.94494        -0.04726
H        -1.23312        -0.96217        -0.04730
4
step: 6  T=     1049.914K  Ek=  0.542847568  Ep= -0.471010248  E_gap=    11.015333  Err=       0.0000000000000000  time_stamp= 1758753277.3118
O         0.67685        -0.00330        -0.00298
C        -0.69196         0.00616         0.01336
H        -1.28195         0.94434        -0.05590
H        -1.21647        -0.96532        -0.05597
4
step: 7  T=     1318.461K  Ek=  0.681697261  Ep= -0.609859942  E_gap=    11.067236  Err=       0.0000000000000000  time_stamp= 1758753277.3769
O         0.67004        -0.00378        -0.00340
C        -0.68494         0.00712         0.01530
H        -1.27429         0.94328        -0.06410
H        -1.19953        -0.96814        -0.06423
4
step: 8  T=     1602.223K  Ek=  0.828413567  Ep= -0.756576248  E_gap=    11.126275  Err=       0.0000000000000000  time_stamp= 1758753277.4380
O         0.66225        -0.00422        -0.00378
C        -0.67670         0.00804         0.01711
H        -1.26585         0.94183        -0.07181
H        -1.18251        -0.97065        -0.07202
4
step: 9  T=     1884.055K  Ek=  0.974131733  Ep= -0.902294413  E_gap=    11.191367  Err=       0.0000000000000000  time_stamp= 1758753277.5023
O         0.65357        -0.00462        -0.00413
C        -0.66732         0.00891         0.01878
H        -1.25675         0.94006        -0.07898
H        -1.16561        -0.97291        -0.07930
4
step: 10  T=     2143.382K  Ek=  1.108214378  Ep= -1.036377059  E_gap=    11.261242  Err=       0.0000000000000000  time_stamp= 1758753277.5674
O         0.64412        -0.00498        -0.00443
C        -0.65693         0.00973         0.02030
H        -1.24713         0.93806        -0.08555
H        -1.14903        -0.97496        -0.08600
