4
step: 1  T=      458.270K  Ek=     0.236944  Ep=     1.399904  E_gap=    13.455439  Err=       0.0000000000000000  time_stamp= 1672868968.9865
 B        -0.00013         0.00010         0.00082        -0.00034         0.00026         0.00204        -0.13042         0.02386        -0.06729         0.29294
H         1.18157        -0.00251        -0.00294        -0.04957        -0.00624        -0.00730        -1.82575         0.01882         0.02213        -0.09930
H        -0.59198         1.03752        -0.00294         0.02197         0.01531        -0.00730         1.00135        -1.82749         0.02263        -0.09635
H        -0.58822        -1.03609        -0.00294         0.03127        -0.01181        -0.00730         0.95482         1.78481         0.02252        -0.09729
4
step: 2  T=      534.627K  Ek=     0.276423  Ep=     1.360007  E_gap=    13.475879  Err=       0.0000000000000000  time_stamp= 1672868969.2903
 B        -0.00027         0.00020         0.00163        -0.00043         0.00027         0.00201        -0.38478         0.04813        -0.13261         0.29433
H         1.16034        -0.00499        -0.00584        -0.05568        -0.00613        -0.00717        -1.36665         0.03719         0.04247        -0.10241
H        -0.58243         1.04225        -0.00584         0.02565         0.00826        -0.00717         0.92221        -1.85318         0.04529        -0.09500
H        -0.57498        -1.03945        -0.00584         0.03469        -0.00501        -0.00717         0.82921         1.76786         0.04484        -0.09692
4
step: 3  T=      612.465K  Ek=     0.316669  Ep=     1.319273  E_gap=    13.501730  Err=       0.0000000000000000  time_stamp= 1672868969.5943
 B        -0.00047         0.00031         0.00243        -0.00062         0.00029         0.00195        -0.67277         0.07375        -0.19418         0.29623
H         1.13703        -0.00741        -0.00867        -0.05985        -0.00595        -0.00698        -0.81174         0.05461         0.06014        -0.10571
H        -0.57146         1.04413        -0.00867         0.02897         0.00123        -0.00695         0.81193        -1.82172         0.06752        -0.09380
H        -0.56047        -1.04010        -0.00867         0.03756         0.00162        -0.00695         0.67258         1.69335         0.06652        -0.09672
4
step: 4  T=      677.872K  Ek=     0.350487  Ep=     1.284974  E_gap=    13.530045  Err=       0.0000000000000000  time_stamp= 1672868969.8976
 B        -0.00077         0.00044         0.00319        -0.00092         0.00032         0.00187        -0.99142         0.10132        -0.25016         0.29864
H         1.11246        -0.00975        -0.01142        -0.06172        -0.00571        -0.00672        -0.16519         0.07053         0.07423        -0.10922
H        -0.55925         1.04323        -0.01140         0.03181        -0.00558        -0.00665         0.67089        -1.73127         0.08885        -0.09274
H        -0.54494        -1.03815        -0.01140         0.03978         0.00785        -0.00666         0.48573         1.55942         0.08708        -0.09668
4
step: 5  T=      717.491K  Ek=     0.370972  Ep=     1.264111  E_gap=    13.557776  Err=       0.0000000000000000  time_stamp= 1672868970.2021
 B        -0.00121         0.00057         0.00392        -0.00133         0.00036         0.00177        -1.32780         0.13071        -0.29874         0.30151
H         1.08765        -0.01198        -0.01405        -0.06097        -0.00542        -0.00642         0.55789         0.08436         0.08399        -0.11295
H        -0.54602         1.03967        -0.01399         0.03405        -0.01191        -0.00627         0.49970        -1.57978         0.10876        -0.09179
H        -0.52865        -1.03382        -0.01400         0.04123         0.01345        -0.00629         0.27021         1.36471         0.10600        -0.09677
4
step: 6  T=      721.434K  Ek=     0.373010  Ep=     1.261900  E_gap=    13.582014  Err=       0.0000000000000000  time_stamp= 1672868970.5340
 B        -0.00184         0.00073         0.00461        -0.00187         0.00041         0.00166        -1.65613         0.16066        -0.33853         0.30471
H         1.06369        -0.01408        -0.01655        -0.05736        -0.00507        -0.00609         1.32739         0.09567         0.08908        -0.11689
H        -0.53201         1.03370        -0.01642         0.03558        -0.01755        -0.00582         0.29971        -1.36572         0.12668        -0.09092
H        -0.51195        -1.02740        -0.01643         0.04180         0.01818        -0.00585         0.02903         1.10939         0.12276        -0.09691
4
step: 7  T=      686.113K  Ek=     0.354748  Ep=     1.280262  E_gap=    13.600210  Err=       0.0000000000000000  time_stamp= 1672868970.7002
 B        -0.00270         0.00090         0.00524        -0.00251         0.00048         0.00153        -1.93707         0.18828        -0.36880         0.30810
H         1.04176        -0.01604        -0.01892        -0.05081        -0.00469        -0.00574         2.09610         0.10429         0.08986        -0.12100
H        -0.51755         1.02563        -0.01865         0.03629        -0.02225        -0.00531         0.07366        -1.08913         0.14207        -0.09008
H        -0.49521        -1.01927        -0.01868         0.04141         0.02183        -0.00536        -0.23269         0.79656         0.13687        -0.09703
4
step: 8  T=      616.017K  Ek=     0.318505  Ep=     1.316872  E_gap=    13.610349  Err=       0.0000000000000000  time_stamp= 1672868970.8706
 B        -0.00384         0.00111         0.00583        -0.00323         0.00055         0.00139        -2.12088         0.20885        -0.38993         0.31148
H         1.02304        -0.01783        -0.02115        -0.04143        -0.00428        -0.00540         2.80176         0.11051         0.08761        -0.12523
H        -0.50298         1.01589        -0.02066         0.03610        -0.02578        -0.00474        -0.17375        -0.75298         0.15439        -0.08919
H        -0.47883        -1.00993        -0.02072         0.03999         0.02419        -0.00481        -0.50714         0.43362         0.14794        -0.09706
4
step: 9  T=      523.393K  Ek=     0.270615  Ep=     1.365306  E_gap=    13.611016  Err=       0.0000000000000000  time_stamp= 1672868971.0372
 B        -0.00529         0.00134         0.00636        -0.00400         0.00062         0.00125        -2.15553         0.21594        -0.40349         0.31461
H         1.00862        -0.01946        -0.02324        -0.02960        -0.00385        -0.00508         3.37455         0.11514         0.08449        -0.12949
H        -0.48867         1.00500        -0.02244         0.03494        -0.02792        -0.00413        -0.43529        -0.36469         0.16323        -0.08822
H        -0.46322        -0.99992        -0.02253         0.03752         0.02508        -0.00423        -0.78373         0.03360         0.15576        -0.09691
4
step: 10  T=      425.442K  Ek=     0.219970  Ep=     1.416514  E_gap=    13.601354  Err=       0.0000000000000000  time_stamp= 1672868971.2063
 B        -0.00704         0.00161         0.00683        -0.00474         0.00070         0.00111        -1.99899         0.20232        -0.41204         0.31730
H         0.99936        -0.02091        -0.02521        -0.01596        -0.00340        -0.00476         3.74956         0.11943         0.08321        -0.13369
H        -0.47503         0.99356        -0.02396         0.03276        -0.02850        -0.00350        -0.70106         0.06248         0.16841        -0.08710
H        -0.44881        -0.98986        -0.02410         0.03401         0.02441        -0.00362        -1.04950        -0.38423         0.16042        -0.09651
