4
step: 1  T=      186.596K  Ek=     0.096477  Ep=     1.415712  E_gap=    13.408907  Err=       0.0000000000000000  time_stamp= 1672955495.2387
 B         0.00108         0.00139        -0.00068         0.00249         0.00342        -0.00170        -1.54758        -2.17107         0.95841         0.29248
H         1.19430        -0.00995         0.00233        -0.01843        -0.02427         0.00608        -2.20468         0.07288         0.32046        -0.09482
H        -0.60696         1.02419         0.00216        -0.01464        -0.01746         0.00607         1.49268        -1.64950        -0.09450        -0.09638
H        -0.59888        -1.02911         0.00282         0.00639         0.00502         0.00606         1.74687         1.32264        -0.02059        -0.10128
4
step: 2  T=      247.548K  Ek=     0.127992  Ep=     1.381929  E_gap=    13.393067  Err=       0.0000000000000000  time_stamp= 1672955495.5923
 B         0.00199         0.00274        -0.00136         0.00237         0.00329        -0.00176        -1.47426        -2.26653        -1.70010         0.29340
H         1.18527        -0.01947         0.00494        -0.02653        -0.02392         0.00631        -2.21228        -0.09745        -0.06551        -0.09378
H        -0.61164         1.01608         0.00445        -0.01006        -0.02234         0.00631         0.59201        -1.27717         0.55117        -0.09492
H        -0.59495        -1.02595         0.00516         0.01121         0.01095         0.00628         0.63998         1.35882        -0.49287        -0.10471
4
step: 3  T=      334.875K  Ek=     0.173144  Ep=     1.338521  E_gap=    13.386003  Err=       0.0000000000000000  time_stamp= 1672955495.9387
 B         0.00297         0.00402        -0.00209         0.00232         0.00300        -0.00183        -1.28362        -0.57622        -0.47942         0.29476
H         1.17310        -0.02898         0.00751        -0.03426        -0.02282         0.00657        -2.04632         0.29920        -0.00022        -0.09283
H        -0.61507         1.00630         0.00749        -0.00593        -0.02691         0.00658         1.56985        -1.06685        -0.24621        -0.09362
H        -0.58984        -1.02041         0.00739         0.01529         0.01755         0.00653         1.01383         2.10638         0.13906        -0.10830
4
step: 4  T=      426.111K  Ek=     0.220316  Ep=     1.287397  E_gap=    13.393436  Err=       0.0000000000000000  time_stamp= 1672955496.2975
 B         0.00385         0.00513        -0.00282         0.00196         0.00261        -0.00175        -2.37546        -1.46379        -0.14874         0.29670
H         1.15787        -0.03792         0.01017        -0.03980        -0.02078         0.00630        -1.00211         0.33789        -0.55649        -0.09225
H        -0.61620         0.99467         0.00997        -0.00066        -0.03127         0.00629         1.42288        -0.94254         0.05633        -0.09260
H        -0.58291        -1.01181         0.01014         0.01946         0.02409         0.00621         0.61590         1.54567        -0.13389        -0.11184
4
step: 5  T=      504.222K  Ek=     0.260703  Ep=     1.238967  E_gap=    13.412281  Err=       0.0000000000000000  time_stamp= 1672955496.6516
 B         0.00453         0.00610        -0.00349         0.00168         0.00211        -0.00157        -0.04650         0.28117         0.30132         0.29912
H         1.14125        -0.04595         0.01231        -0.04439        -0.01785         0.00567        -1.48034         1.02142         0.08969        -0.09207
H        -0.61530         0.98147         0.01257         0.00406        -0.03385         0.00566         1.23741        -0.07313        -0.44425        -0.09183
H        -0.57458        -1.00097         0.01257         0.02226         0.02907         0.00554         0.47626         1.36890        -0.26407        -0.11523
4
step: 6  T=      570.501K  Ek=     0.294972  Ep=     1.200945  E_gap=    13.441319  Err=       0.0000000000000000  time_stamp= 1672955497.0161
 B         0.00519         0.00682        -0.00408         0.00155         0.00154        -0.00158        -1.96795        -0.68003        -0.79423         0.30207
H         1.12235        -0.05245         0.01467        -0.04892        -0.01451         0.00572        -1.01583         0.53857         0.35326        -0.09221
H        -0.61274         0.96773         0.01451         0.00809        -0.03426         0.00575         1.13282         0.38098         0.20235        -0.09149
H        -0.56532        -0.98843         0.01460         0.02425         0.03228         0.00552         0.02695         0.78942        -0.02903        -0.11836
4
step: 7  T=      609.140K  Ek=     0.314950  Ep=     1.182149  E_gap=    13.476668  Err=       0.0000000000000000  time_stamp= 1672955497.3697
 B         0.00577         0.00733        -0.00476         0.00108         0.00105        -0.00152        -2.47396        -0.97393         0.24781         0.30544
H         1.10211        -0.05790         0.01724        -0.04989        -0.01218         0.00553         0.31636         0.40950         0.08831        -0.09274
H        -0.60853         0.95426         0.01698         0.01156        -0.03418         0.00554         0.81968        -0.01387        -0.81578        -0.09149
H        -0.55550        -0.97497         0.01680         0.02677         0.03515         0.00523         0.76388         0.99762        -0.45733        -0.12121
4
step: 8  T=      597.991K  Ek=     0.309185  Ep=     1.186758  E_gap=    13.519702  Err=       0.0000000000000000  time_stamp= 1672955497.7348
 B         0.00606         0.00766        -0.00530         0.00053         0.00050        -0.00128        -1.75321        -0.80422        -1.20363         0.30917
H         1.08243        -0.06249         0.01957        -0.04773        -0.00948         0.00470         0.69720         1.04088         0.10800        -0.09376
H        -0.60325         0.94056         0.01862         0.01414        -0.03314         0.00469         0.46574         0.73594        -0.41091        -0.09165
H        -0.54417        -0.96017         0.01860         0.02794         0.03724         0.00433        -0.36653         0.23948        -0.56771        -0.12377
4
step: 9  T=      512.353K  Ek=     0.264907  Ep=     1.217026  E_gap=    13.566009  Err=       0.0000000000000000  time_stamp= 1672955498.0980
 B         0.00620         0.00773        -0.00578         0.00006         0.00000        -0.00102        -1.01116        -1.88657         0.13839         0.31304
H         1.06392        -0.06555         0.02165        -0.04259        -0.00718         0.00381         1.94603        -0.22264        -0.19590        -0.09503
H        -0.59718         0.92780         0.02030         0.01454        -0.02934         0.00378         0.05049         1.48951        -0.40072        -0.09217
H        -0.53323        -0.94516         0.02001         0.02738         0.03651         0.00338        -0.31831        -0.42841        -0.75256        -0.12584
4
step: 10  T=      390.741K  Ek=     0.202029  Ep=     1.267147  E_gap=    13.610170  Err=       0.0000000000000000  time_stamp= 1672955498.4396
 B         0.00611         0.00766        -0.00611        -0.00041        -0.00007        -0.00090        -1.09024         0.68200        -1.13318         0.31663
H         1.04834        -0.06853         0.02309        -0.03528        -0.00655         0.00344         1.92642         0.54883         0.07182        -0.09648
H        -0.59137         0.91726         0.02158         0.01386        -0.02508         0.00332        -0.42869         0.61470        -0.02490        -0.09266
H        -0.52256        -0.93083         0.02085         0.02584         0.03238         0.00295        -0.37294        -1.84782         0.14528        -0.12750
4
step: 1  T=      379.024K  Ek=     0.195971  Ep=     1.498579  E_gap=    13.349477  Err=       0.0000000000000000  time_stamp= 1699035826.2365
B         0.00096         0.00214         0.00006         0.00211         0.00528         0.00011        -0.92753         0.13903        -0.02445         0.29053
H         1.20072        -0.00208        -0.00019        -0.00159        -0.00550        -0.00038        -1.70555        -0.10366        -0.24713        -0.09555
H        -0.60045         1.03266        -0.00011         0.00118         0.00248        -0.00038         1.26164        -2.12112         0.02920        -0.09597
H        -0.61055        -1.05356        -0.00031        -0.02222        -0.05358        -0.00038         2.24473         2.84696         0.47059        -0.09901
4
step: 2  T=      257.959K  Ek=     0.133375  Ep=     1.548020  E_gap=    13.274878  Err=       0.0000000000000000  time_stamp= 1699035827.4331
B         0.00169         0.00422         0.00008         0.00157         0.00483        -0.00005        -1.83837        -2.46785         1.89131         0.28998
H         1.19872        -0.00440        -0.00054        -0.00788        -0.00492         0.00017        -1.53994         0.81981         0.78700        -0.09522
H        -0.59906         1.03199        -0.00025         0.00639        -0.00329         0.00018         1.14586        -1.07145         0.10339        -0.09421
H        -0.61777        -1.07286        -0.00012        -0.01530        -0.04364         0.00016         1.75998         2.18772         0.50104        -0.10055
4
step: 3  T=      191.610K  Ek=     0.099070  Ep=     1.581930  E_gap=    13.218211  Err=       0.0000000000000000  time_stamp= 1699035828.6158
B         0.00221         0.00601         0.00002         0.00132         0.00424         0.00016         1.12841        -1.60701         4.02628         0.28999
H         1.19442        -0.00571        -0.00005        -0.01524        -0.00366        -0.00058        -2.19396         0.46135        -0.19049        -0.09532
H        -0.59560         1.02988        -0.00028         0.01067        -0.00744        -0.00059         0.55602        -1.47389        -0.43235        -0.09281
H        -0.62251        -1.08861         0.00015        -0.00953        -0.03433        -0.00054         1.95610         2.34587        -0.59527        -0.10187
4
step: 4  T=      179.742K  Ek=     0.092934  Ep=     1.594758  E_gap=    13.178280  Err=       0.0000000000000000  time_stamp= 1699035829.7475
B         0.00273         0.00760         0.00021         0.00128         0.00391         0.00042        -1.23243        -1.02768         0.06596         0.29061
H         1.18656        -0.00680        -0.00059        -0.02396        -0.00389        -0.00152        -2.32272        -0.30584         0.06917        -0.09563
H        -0.59099         1.02579        -0.00100         0.01403        -0.01320        -0.00153         0.90120        -1.76351         0.55770        -0.09174
H        -0.62491        -1.10053        -0.00068        -0.00376        -0.02481        -0.00142         1.39681         2.40125        -0.15417        -0.10324
4
step: 5  T=      209.926K  Ek=     0.108540  Ep=     1.586147  E_gap=    13.153565  Err=       0.0000000000000000  time_stamp= 1699035830.8025
B         0.00323         0.00913         0.00035         0.00129         0.00360         0.00051        -0.54775        -1.32903        -0.01675         0.29187
H         1.17527        -0.00856        -0.00117        -0.03159        -0.00408        -0.00187        -1.83103         0.06617        -0.41046        -0.09618
H        -0.58462         1.01920        -0.00122         0.01667        -0.02013        -0.00190         0.37466        -1.86967        -0.64599        -0.09081
H        -0.62528        -1.10858        -0.00140         0.00112        -0.01446        -0.00174         0.90062         2.99354        -0.10602        -0.10488
4
step: 6  T=      264.092K  Ek=     0.136546  Ep=     1.558987  E_gap=    13.145628  Err=       0.0000000000000000  time_stamp= 1699035831.2009
B         0.00377         0.01049         0.00062         0.00146         0.00312         0.00065         1.99246        -0.11977         0.75452         0.29366
H         1.16130        -0.01013        -0.00217        -0.03778        -0.00388        -0.00236        -1.34778         0.16358         0.53083        -0.09674
H        -0.57760         1.00972        -0.00241         0.01741        -0.02621        -0.00241         0.05654        -1.18532         0.13479        -0.09025
H        -0.62408        -1.11206        -0.00211         0.00476        -0.00332        -0.00219         1.05183         2.93840        -0.27012        -0.10667
4
step: 7  T=      335.742K  Ek=     0.173592  Ep=     1.520398  E_gap=    13.152841  Err=       0.0000000000000000  time_stamp= 1699035831.6659
B         0.00439         0.01162         0.00087         0.00165         0.00240         0.00054         1.09116        -0.35281        -2.47314         0.29590
H         1.14505        -0.01165        -0.00277        -0.04284        -0.00316        -0.00196        -1.06942         0.70201         0.07608        -0.09720
H        -0.57069         0.99823        -0.00333         0.01713        -0.03080        -0.00200        -0.16995        -0.93130        -0.04395        -0.09010
H        -0.62147        -1.11124        -0.00326         0.00796         0.00823        -0.00181         0.95747         3.33552        -0.16946        -0.10861
4
step: 8  T=      429.948K  Ek=     0.222300  Ep=     1.474295  E_gap=    13.178587  Err=       0.0000000000000000  time_stamp= 1699035832.9939
B         0.00509         0.01240         0.00106         0.00143         0.00149         0.00033        -2.70211         0.61418         1.00934         0.29859
H         1.12705        -0.01254        -0.00335        -0.04637        -0.00267        -0.00121        -0.75589        -0.02139         0.68907        -0.09756
H        -0.56401         0.98504        -0.00402         0.01772        -0.03373        -0.00124         0.50824        -0.01852         0.66163        -0.09051
H        -0.61759        -1.10554        -0.00397         0.01335         0.02046        -0.00113         1.73063         3.58385        -0.26337        -0.11052
4
step: 9  T=      556.909K  Ek=     0.287944  Ep=     1.423954  E_gap=    13.226394  Err=       0.0000000000000000  time_stamp= 1699035834.3535
B         0.00553         0.01281         0.00115         0.00101         0.00059         0.00033        -0.40244        -1.40575         0.56631         0.30170
H         1.10799        -0.01385        -0.00343        -0.04920        -0.00338        -0.00121        -0.75094         0.29943        -0.44410        -0.09830
H        -0.55647         0.97131        -0.00413         0.01809        -0.03550        -0.00124        -0.61213        -0.60688         0.31114        -0.09120
H        -0.61086        -1.09485        -0.00474         0.02031         0.03256        -0.00105         2.07108         2.97530        -0.62099        -0.11219
4
step: 10  T=      684.495K  Ek=     0.353911  Ep=     1.377903  E_gap=    13.292135  Err=       0.0000000000000000  time_stamp= 1699035835.7407
B         0.00589         0.01288         0.00133         0.00059        -0.00026         0.00038        -0.81122        -3.46034        -0.20390         0.30505
H         1.08772        -0.01504        -0.00424        -0.05008        -0.00419        -0.00144         0.41953        -0.40571         0.03419        -0.09914
H        -0.54972         0.95657        -0.00437         0.01756        -0.03664        -0.00149         0.15298        -0.14808         0.41757        -0.09211
H        -0.60116        -1.07962        -0.00562         0.02619         0.04362        -0.00119         1.41738         2.60325        -0.12205        -0.11381
