4
step: 1  T=      319.992K  Ek=     0.165449  Ep=     1.459675  E_gap=    13.373059  Err=       0.0000000000000000  time_stamp= 1672955483.0288
 B         0.00193        -0.00017        -0.00158         0.00482        -0.00042        -0.00393        -0.05771         0.04322         0.13044         0.29140
H         1.20486        -0.00039         0.00565         0.00781        -0.00098         0.01404        -2.27086         0.00368        -0.04388        -0.09203
H        -0.61367         1.02753         0.00565        -0.03191        -0.00959         0.01404         1.18029        -1.78630        -0.04338        -0.09974
H        -0.61190        -1.02529         0.00565        -0.02756         0.01511         0.01404         1.14829         1.73940        -0.04318        -0.09964
4
step: 2  T=      301.652K  Ek=     0.155966  Ep=     1.469200  E_gap=    13.316596  Err=       0.0000000000000000  time_stamp= 1672955483.3778
 B         0.00385        -0.00034        -0.00314         0.00477        -0.00040        -0.00386        -0.21111         0.08411         0.25943         0.29118
H         1.20624        -0.00078         0.01123        -0.00091        -0.00096         0.01379        -2.28372         0.00711        -0.08731        -0.08792
H        -0.62553         1.02233         0.01123        -0.02720        -0.01640         0.01379         1.27900        -1.77108        -0.08646        -0.10174
H        -0.62205        -1.01792         0.01124        -0.02303         0.02165         0.01380         1.21583         1.67986        -0.08567        -0.10152
4
step: 3  T=      318.202K  Ek=     0.164523  Ep=     1.460538  E_gap=    13.269721  Err=       0.0000000000000000  time_stamp= 1672955483.7465
 B         0.00575        -0.00049        -0.00467         0.00467        -0.00036        -0.00374        -0.36426         0.12320         0.38454         0.29138
H         1.20413        -0.00116         0.01668        -0.00956        -0.00092         0.01338        -2.23026         0.01032        -0.12943        -0.08410
H        -0.63543         1.01441         0.01669        -0.02218        -0.02305         0.01338         1.34416        -1.70140        -0.12842        -0.10381
H        -0.63033        -1.00797         0.01669        -0.01831         0.02787         0.01339         1.25036         1.56788        -0.12668        -0.10347
4
step: 4  T=      366.388K  Ek=     0.189437  Ep=     1.435375  E_gap=    13.232642  Err=       0.0000000000000000  time_stamp= 1672955484.1089
 B         0.00759        -0.00063        -0.00614         0.00451        -0.00031        -0.00359        -0.51541         0.16085         0.50329         0.29202
H         1.19860        -0.00152         0.02193        -0.01787        -0.00088         0.01280        -2.10930         0.01332        -0.16937        -0.08059
H        -0.64327         1.00389         0.02194        -0.01697        -0.02933         0.01282         1.37440        -1.57764        -0.16849        -0.10595
H        -0.63670        -0.99562         0.02195        -0.01352         0.03356         0.01283         1.25031         1.40347        -0.16543        -0.10548
4
step: 5  T=      438.584K  Ek=     0.226765  Ep=     1.397668  E_gap=    13.205237  Err=       0.0000000000000000  time_stamp= 1672955484.4736
 B         0.00935        -0.00074        -0.00754         0.00430        -0.00025        -0.00339        -0.66303         0.19708         0.61311         0.29311
H         1.18984        -0.00186         0.02693        -0.02558        -0.00082         0.01209        -1.91867         0.01608        -0.20618        -0.07740
H        -0.64901         0.99095         0.02694        -0.01172        -0.03503         0.01210         1.36787        -1.39950        -0.20585        -0.10814
H        -0.64115        -0.98112         0.02695        -0.00881         0.03852         0.01213         1.21383         1.18634        -0.20109        -0.10757
4
step: 6  T=      523.289K  Ek=     0.270561  Ep=     1.353390  E_gap=    13.187000  Err=       0.0000000000000000  time_stamp= 1672955484.8385
 B         0.01103        -0.00083        -0.00885         0.00404        -0.00017        -0.00315        -0.80567         0.23135         0.71126         0.29466
H         1.17814        -0.00218         0.03160        -0.03242        -0.00075         0.01123        -1.65580         0.01859        -0.23883        -0.07457
H        -0.65265         0.97587         0.03162        -0.00657        -0.03994         0.01125         1.32237        -1.16627        -0.23963        -0.11037
H        -0.64374        -0.96481         0.03165        -0.00430         0.04254         0.01130         1.13910         0.91633        -0.23280        -0.10972
4
step: 7  T=      606.053K  Ek=     0.313354  Ep=     1.310056  E_gap=    13.177024  Err=       0.0000000000000000  time_stamp= 1672955485.2170
 B         0.01258        -0.00088        -0.01005         0.00372        -0.00008        -0.00288        -0.94177         0.26246         0.79490         0.29667
H         1.16390        -0.00246         0.03591        -0.03812        -0.00068         0.01027        -1.31877         0.02077        -0.26626        -0.07212
H        -0.65427         0.95900         0.03593        -0.00168        -0.04385         0.01027         1.23571        -0.87755        -0.26895        -0.11262
H        -0.64459        -0.94709         0.03599        -0.00016         0.04544         0.01036         1.02483         0.59433        -0.25969        -0.11193
4
step: 8  T=      670.965K  Ek=     0.346916  Ep=     1.275962  E_gap=    13.174069  Err=       0.0000000000000000  time_stamp= 1672955485.5853
 B         0.01401        -0.00090        -0.01115         0.00337         0.00001        -0.00258        -1.06939         0.28838         0.86127         0.29915
H         1.14765        -0.00272         0.03982        -0.04238        -0.00060         0.00921        -0.90785         0.02251        -0.28740        -0.07010
H        -0.65399         0.94079         0.03984         0.00281        -0.04655         0.00920         1.10622        -0.53424        -0.29289        -0.11485
H        -0.64387        -0.92846         0.03994         0.00347         0.04700         0.00932         0.87102         0.22335        -0.28098        -0.11420
4
step: 9  T=      702.807K  Ek=     0.363379  Ep=     1.259068  E_gap=    13.176686  Err=       0.0000000000000000  time_stamp= 1672955485.9337
 B         0.01528        -0.00087        -0.01212         0.00296         0.00012        -0.00227        -1.18602         0.30624         0.90811         0.30204
H         1.13000        -0.00294         0.04328        -0.04494        -0.00051         0.00808        -0.42760         0.02369        -0.30137        -0.06850
H        -0.65202         0.92176         0.04329         0.00671        -0.04784         0.00804         0.93373        -0.13985        -0.31066        -0.11705
H        -0.64181        -0.90949         0.04345         0.00644         0.04706         0.00822         0.67989        -0.19008        -0.29608        -0.11649
4
step: 10  T=      689.841K  Ek=     0.356676  Ep=     1.265549  E_gap=    13.183384  Err=       0.0000000000000000  time_stamp= 1672955486.3024
 B         0.01638        -0.00080        -0.01297         0.00252         0.00023        -0.00194        -1.28847         0.31242         0.93413         0.30526
H         1.11170        -0.00313         0.04628        -0.04554        -0.00042         0.00691         0.11084         0.02412        -0.30771        -0.06734
H        -0.64862         0.90251         0.04627         0.00988        -0.04754         0.00683         0.72061         0.29800        -0.32168        -0.11915
H        -0.63871        -0.89081         0.04651         0.00862         0.04549         0.00707         0.45702        -0.63454        -0.30474        -0.11876
4
step: 1  T=      167.952K  Ek=     0.086838  Ep=     1.415414  E_gap=    13.419726  Err=       0.0000000000000000  time_stamp= 1699035458.5228
B        -0.00129         0.00063        -0.00041        -0.00318         0.00157        -0.00101         0.20713        -0.03682         0.03371         0.29257
H         1.19702        -0.00558         0.00146        -0.01156        -0.01387         0.00362        -2.14284         0.04120        -0.01133        -0.09872
H        -0.59452         1.03107         0.00146         0.01560        -0.00064         0.00362         0.99264        -1.72428        -0.01120        -0.09587
H        -0.58871        -1.03224         0.00146         0.03004        -0.00231         0.00362         0.94308         1.71989        -0.01118        -0.09798
4
step: 2  T=      232.030K  Ek=     0.119969  Ep=     1.381965  E_gap=    13.407616  Err=       0.0000000000000000  time_stamp= 1699035460.2159
B        -0.00254         0.00125        -0.00081        -0.00308         0.00155        -0.00099         0.31171        -0.07089         0.06635         0.29355
H         1.19075        -0.01110         0.00290        -0.01954        -0.01364         0.00356        -2.02775         0.08113        -0.02233        -0.10180
H        -0.58752         1.02949         0.00290         0.01924        -0.00709         0.00356         0.90699        -1.64832        -0.02207        -0.09352
H        -0.57597        -1.03185         0.00290         0.03340         0.00412         0.00356         0.80904         1.63808        -0.02196        -0.09823
4
step: 3  T=      318.876K  Ek=     0.164872  Ep=     1.336618  E_gap=    13.406364  Err=       0.0000000000000000  time_stamp= 1699035461.5811
B        -0.00375         0.00187        -0.00120        -0.00296         0.00152        -0.00097         0.41034        -0.10389         0.09764         0.29496
H         1.18138        -0.01649         0.00430        -0.02696        -0.01325         0.00345        -1.84520         0.12031        -0.03288        -0.10498
H        -0.57913         1.02539         0.00430         0.02248        -0.01315         0.00345         0.79006        -1.51605        -0.03250        -0.09137
H        -0.56199        -1.02895         0.00430         0.03618         0.01012         0.00345         0.64481         1.49963        -0.03226        -0.09860
4
step: 4  T=      416.517K  Ek=     0.215356  Ep=     1.285590  E_gap=    13.414516  Err=       0.0000000000000000  time_stamp= 1699035462.7878
B        -0.00491         0.00247        -0.00158        -0.00279         0.00148        -0.00093         0.49990        -0.13500         0.12678         0.29683
H         1.16918        -0.02170         0.00566        -0.03354        -0.01272         0.00331        -1.59302         0.15801        -0.04271        -0.10827
H        -0.56953         1.01897         0.00566         0.02523        -0.01859         0.00331         0.64189        -1.32605        -0.04225        -0.08945
H        -0.54702        -1.02375         0.00566         0.03828         0.01549         0.00331         0.45123         1.30305        -0.04182        -0.09911
4
step: 5  T=      510.319K  Ek=     0.263856  Ep=     1.236498  E_gap=    13.430256  Err=       0.0000000000000000  time_stamp= 1699035464.0808
B        -0.00599         0.00305        -0.00194        -0.00260         0.00142        -0.00088         0.57693        -0.16380         0.15296         0.29915
H         1.15455        -0.02666         0.00695        -0.03902        -0.01204         0.00312        -1.26957         0.19342        -0.05155        -0.11162
H        -0.55895         1.01051         0.00695         0.02734        -0.02320         0.00313         0.46290        -1.07749        -0.05103        -0.08777
H        -0.53137        -1.01656         0.00695         0.03958         0.01999         0.00314         0.22974         1.04787        -0.05037        -0.09976
4
step: 6  T=      584.593K  Ek=     0.302258  Ep=     1.197548  E_gap=    13.451139  Err=       0.0000000000000000  time_stamp= 1699035465.4202
B        -0.00699         0.00361        -0.00228        -0.00238         0.00136        -0.00082         0.63590        -0.18965         0.17534         0.30169
H         1.13797        -0.03133         0.00816        -0.04313        -0.01124         0.00291        -0.87580         0.22535        -0.05908        -0.11516
H        -0.54766         1.00041         0.00816         0.02872        -0.02674         0.00292         0.25552        -0.77207        -0.05860        -0.08608
H        -0.51536        -1.00776         0.00817         0.03999         0.02341         0.00293        -0.01562         0.73637        -0.05767        -0.10045
4
step: 7  T=      624.665K  Ek=     0.322977  Ep=     1.176435  E_gap=    13.475502  Err=       0.0000000000000000  time_stamp= 1699035466.4446
B        -0.00790         0.00414        -0.00260        -0.00215         0.00129        -0.00075         0.67625        -0.21426         0.19335         0.30486
H         1.12004        -0.03566         0.00928        -0.04560        -0.01033         0.00268        -0.41460         0.25354        -0.06511        -0.11855
H        -0.53598         0.98913         0.00929         0.02925        -0.02901         0.00268         0.02100        -0.41262        -0.06469        -0.08495
H        -0.49937        -0.99783         0.00929         0.03942         0.02553         0.00270        -0.28265         0.37334        -0.06355        -0.10136
4
step: 8  T=      619.615K  Ek=     0.320366  Ep=     1.178867  E_gap=    13.500602  Err=       0.0000000000000000  time_stamp= 1699035466.8990
B        -0.00871         0.00464        -0.00288        -0.00191         0.00121        -0.00068         0.69295        -0.23786         0.20645         0.30832
H         1.10148        -0.03959         0.01030        -0.04620        -0.00931         0.00242         0.10296         0.27673        -0.06941        -0.12190
H        -0.52426         0.97721         0.01031         0.02884        -0.02981         0.00243        -0.23359        -0.00927        -0.06916        -0.08407
H        -0.48382        -0.98733         0.01032         0.03780         0.02619         0.00244        -0.56233        -0.02961        -0.06788        -0.10236
4
step: 9  T=      565.315K  Ek=     0.292290  Ep=     1.207062  E_gap=    13.524181  Err=       0.0000000000000000  time_stamp= 1699035467.7201
B        -0.00942         0.00510        -0.00314        -0.00166         0.00112        -0.00060         0.68453        -0.26192         0.21457         0.31192
H         1.08308        -0.04310         0.01121        -0.04474        -0.00822         0.00215         0.65831         0.29429        -0.07194        -0.12513
H        -0.51291         0.96527         0.01123         0.02744        -0.02902         0.00216        -0.49893         0.42223        -0.07197        -0.08339
H        -0.46913        -0.97688         0.01125         0.03511         0.02526         0.00218        -0.84391        -0.45461        -0.07066        -0.10340
4
step: 10  T=      466.680K  Ek=     0.241292  Ep=     1.258498  E_gap=    13.544535  Err=       0.0000000000000000  time_stamp= 1699035468.7104
B        -0.01004         0.00553        -0.00337        -0.00142         0.00102        -0.00053         0.65407        -0.28877         0.21824         0.31555
H         1.06569        -0.04616         0.01201        -0.04114        -0.00707         0.00187         1.22422         0.30637        -0.07287        -0.12800
H        -0.50231         0.95399         0.01204         0.02502        -0.02657         0.00188        -0.76325         0.85978        -0.07325        -0.08308
H        -0.45573        -0.96713         0.01207         0.03136         0.02271         0.00191        -1.11504        -0.87738        -0.07211        -0.10447
4
step: 1  T=      210.054K  Ek=     0.108606  Ep=     1.426851  E_gap=    13.415580  Err=       0.0000000000000000  time_stamp= 1699035790.0737
B         0.00071         0.00120        -0.00009         0.00176         0.00296        -0.00023        -0.15084        -0.24522         0.00785         0.29229
H         1.18857        -0.00069         0.00034        -0.03232        -0.00173         0.00084        -1.96142         0.00058        -0.00260        -0.09677
H        -0.59497         1.02971         0.00034         0.01446        -0.00401         0.00084         0.98579        -1.71154        -0.00260        -0.09707
H        -0.60126        -1.04190         0.00034        -0.00100        -0.02599         0.00084         1.12647         1.95619        -0.00265        -0.09844
4
step: 2  T=      246.385K  Ek=     0.127391  Ep=     1.407842  E_gap=    13.402848  Err=       0.0000000000000000  time_stamp= 1699035791.3986
B         0.00141         0.00237        -0.00019         0.00166         0.00283        -0.00023        -0.40074        -0.47649         0.01542         0.29315
H         1.17414        -0.00138         0.00067        -0.03924        -0.00173         0.00082        -1.65543        -0.00134        -0.00501        -0.09753
H        -0.58843         1.02679         0.00067         0.01806        -0.01040         0.00082         0.89030        -1.62226        -0.00510        -0.09627
H        -0.60080        -1.05080         0.00067         0.00338        -0.01823         0.00082         1.16587         2.10009        -0.00531        -0.09935
4
step: 3  T=      302.319K  Ek=     0.156311  Ep=     1.378571  E_gap=    13.402791  Err=       0.0000000000000000  time_stamp= 1699035792.7051
B         0.00204         0.00347        -0.00028         0.00147         0.00262        -0.00022        -0.66156        -0.70105         0.02265         0.29459
H         1.15718        -0.00207         0.00100        -0.04485        -0.00174         0.00080        -1.27047        -0.00479        -0.00721        -0.09852
H        -0.58052         1.02139         0.00100         0.02122        -0.01633         0.00080         0.76252        -1.47621        -0.00748        -0.09568
H        -0.59856        -1.05648         0.00100         0.00785        -0.01003         0.00080         1.16950         2.18205        -0.00796        -0.10039
4
step: 4  T=      368.707K  Ek=     0.190636  Ep=     1.343809  E_gap=    13.415649  Err=       0.0000000000000000  time_stamp= 1699035793.9289
B         0.00258         0.00446        -0.00037         0.00119         0.00233        -0.00021        -0.93385        -0.92077         0.02935         0.29659
H         1.13827        -0.00278         0.00131        -0.04882        -0.00177         0.00077        -0.80671        -0.00995        -0.00910        -0.09974
H        -0.57145         1.01373         0.00131         0.02383        -0.02159         0.00077         0.60223        -1.27223        -0.00969        -0.09534
H        -0.59452        -1.05882         0.00131         0.01227        -0.00163         0.00076         1.13832         2.20295        -0.01056        -0.10152
4
step: 5  T=      434.216K  Ek=     0.224507  Ep=     1.309479  E_gap=    13.441169  Err=       0.0000000000000000  time_stamp= 1699035794.3826
B         0.00299         0.00533        -0.00045         0.00080         0.00196        -0.00020        -1.21319        -1.13543         0.03532         0.29912
H         1.11812        -0.00349         0.00161        -0.05088        -0.00182         0.00073        -0.26919        -0.01677        -0.01062        -0.10120
H        -0.56146         1.00412         0.00161         0.02577        -0.02596         0.00073         0.40990        -1.00985        -0.01166        -0.09524
H        -0.58874        -1.05779         0.00161         0.01651         0.00672         0.00072         1.07248         2.16206        -0.01304        -0.10269
4
step: 6  T=      487.203K  Ek=     0.251903  Ep=     1.281676  E_gap=    13.478462  Err=       0.0000000000000000  time_stamp= 1699035795.1670
B         0.00323         0.00603        -0.00053         0.00032         0.00152        -0.00019        -1.48793        -1.34128         0.04039         0.30212
H         1.09756        -0.00423         0.00190        -0.05077        -0.00190         0.00069         0.32854        -0.02502        -0.01170        -0.10292
H        -0.55083         0.99296         0.00189         0.02692        -0.02921         0.00068         0.18779        -0.69111        -0.01335        -0.09536
H        -0.58132        -1.05344         0.00188         0.02042         0.01480         0.00066         0.97161         2.05741        -0.01535        -0.10384
4
step: 7  T=      518.001K  Ek=     0.267827  Ep=     1.265481  E_gap=    13.526054  Err=       0.0000000000000000  time_stamp= 1699035796.2367
B         0.00325         0.00655        -0.00060        -0.00026         0.00101        -0.00017        -1.73802        -1.53064         0.04445         0.30548
H         1.07750        -0.00501         0.00217        -0.04830        -0.00201         0.00064         0.96287        -0.03380        -0.01234        -0.10489
H        -0.53992         0.98075         0.00216         0.02716        -0.03115         0.00063        -0.05954        -0.32123        -0.01469        -0.09567
H        -0.57240        -1.04594         0.00214         0.02388         0.02235         0.00060         0.83469         1.88567        -0.01742        -0.10492
4
step: 8  T=      521.156K  Ek=     0.269458  Ep=     1.263770  E_gap=    13.581661  Err=       0.0000000000000000  time_stamp= 1699035797.0794
B         0.00302         0.00684        -0.00067        -0.00091         0.00043        -0.00016        -1.93481        -1.69047         0.04743         0.30907
H         1.05892        -0.00584         0.00241        -0.04339        -0.00216         0.00060         1.59799        -0.04174        -0.01258        -0.10707
H        -0.52910         0.96804         0.00239         0.02643        -0.03160         0.00057        -0.32400         0.08908        -0.01566        -0.09614
H        -0.56221        -1.03556         0.00237         0.02674         0.02911         0.00053         0.66082         1.64313        -0.01919        -0.10586
4
step: 9  T=      496.996K  Ek=     0.256967  Ep=     1.276383  E_gap=    13.642063  Err=       0.0000000000000000  time_stamp= 1699035798.0094
B         0.00252         0.00689        -0.00073        -0.00162        -0.00019        -0.00014        -2.04369        -1.80234         0.04938         0.31269
H         1.04279        -0.00674         0.00264        -0.03615        -0.00233         0.00055         2.18755        -0.04695        -0.01253        -0.10941
H        -0.51878         0.95547         0.00261         0.02467        -0.03043         0.00051        -0.59358         0.52265        -0.01627        -0.09669
H        -0.55101        -1.02266         0.00256         0.02887         0.03479         0.00045         0.44973         1.32664        -0.02059        -0.10660
4
step: 10  T=      451.793K  Ek=     0.233595  Ep=     1.300027  E_gap=    13.702899  Err=       0.0000000000000000  time_stamp= 1699035799.0028
B         0.00172         0.00669        -0.00078        -0.00235        -0.00084        -0.00012        -2.02939        -1.84332         0.05047         0.31615
H         1.03001        -0.00771         0.00285        -0.02683        -0.00251         0.00050         2.67956        -0.04733        -0.01239        -0.11183
H        -0.50937         0.94370         0.00280         0.02190        -0.02760         0.00044        -0.85270         0.95558        -0.01655        -0.09725
H        -0.53912        -1.00772         0.00273         0.03011         0.03912         0.00037         0.20253         0.93506        -0.02154        -0.10707
4
step: 1  T=      416.184K  Ek=     0.215184  Ep=     1.420597  E_gap=    13.380116  Err=       0.0000000000000000  time_stamp= 1700770924.9237
B         0.00242         0.00139         0.00044         0.00602         0.00343         0.00108        -0.11185        -0.22204        -0.03578         0.29236
H         1.19754        -0.00422        -0.00156        -0.01023        -0.01051        -0.00387        -2.12663         0.02623         0.01202        -0.09151
H        -0.61109         1.01497        -0.00156        -0.02566        -0.04055        -0.00387         1.07614        -1.55840         0.01177        -0.09883
H        -0.61238        -1.02564        -0.00156        -0.02873         0.01426        -0.00387         1.16234         1.75421         0.01199        -0.10202
4
step: 2  T=      463.945K  Ek=     0.239878  Ep=     1.395667  E_gap=    13.330482  Err=       0.0000000000000000  time_stamp= 1700770925.0885
B         0.00482         0.00274         0.00087         0.00595         0.00331         0.00106        -0.31733        -0.43975        -0.07079         0.29308
H         1.19181        -0.00841        -0.00310        -0.01812        -0.01036        -0.00380        -1.99475         0.05166         0.02376        -0.08690
H        -0.62053         0.99756        -0.00310        -0.02155        -0.04606        -0.00380         1.06818        -1.31785         0.02309        -0.09983
H        -0.62298        -1.01859        -0.00310        -0.02412         0.02089        -0.00380         1.24390         1.70594         0.02393        -0.10634
4
step: 3  T=      529.182K  Ek=     0.273608  Ep=     1.361589  E_gap=    13.289675  Err=       0.0000000000000000  time_stamp= 1700770925.2448
B         0.00718         0.00404         0.00129         0.00580         0.00312         0.00103        -0.52111        -0.65216        -0.10425         0.29422
H         1.18304        -0.01251        -0.00460        -0.02538        -0.01011        -0.00369        -1.79388         0.07556         0.03495        -0.08257
H        -0.62833         0.97812        -0.00460        -0.01755        -0.05055        -0.00370         1.02281        -1.02495         0.03369        -0.10086
H        -0.63168        -1.00893        -0.00460        -0.01927         0.02722        -0.00369         1.29218         1.60156         0.03561        -0.11079
4
step: 4  T=      601.391K  Ek=     0.310943  Ep=     1.323826  E_gap=    13.257052  Err=       0.0000000000000000  time_stamp= 1700770925.4044
B         0.00946         0.00524         0.00169         0.00558         0.00285         0.00099        -0.72199        -0.85659        -0.13536         0.29579
H         1.17151        -0.01650        -0.00605        -0.03173        -0.00978        -0.00354        -1.52192         0.09714         0.04527        -0.07855
H        -0.63457         0.95712        -0.00605        -0.01379        -0.05381        -0.00355         0.93846        -0.68153         0.04331        -0.10194
H        -0.63839        -0.99681        -0.00605        -0.01429         0.03305        -0.00353         1.30544         1.44098         0.04678        -0.11530
4
step: 5  T=      667.763K  Ek=     0.345260  Ep=     1.289047  E_gap=    13.231716  Err=       0.0000000000000000  time_stamp= 1700770925.5650
B         0.01164         0.00632         0.00208         0.00528         0.00251         0.00094        -0.91872        -1.04794        -0.16330         0.29777
H         1.15766        -0.02034        -0.00743        -0.03689        -0.00938        -0.00334        -1.17784         0.11563         0.05442        -0.07489
H        -0.63937         0.93507        -0.00744        -0.01044        -0.05568        -0.00337         0.81494        -0.29159         0.05171        -0.10307
H        -0.64311        -0.98249        -0.00742        -0.00934         0.03815        -0.00333         1.28162         1.22390         0.05717        -0.11980
4
step: 6  T=      714.716K  Ek=     0.369537  Ep=     1.264340  E_gap=    13.212586  Err=       0.0000000000000000  time_stamp= 1700770925.7245
B         0.01369         0.00725         0.00244         0.00492         0.00210         0.00087        -1.10969        -1.21836        -0.18727         0.30012
H         1.14200        -0.02400        -0.00872        -0.04061        -0.00891        -0.00312        -0.76336         0.13038         0.06206        -0.07163
H        -0.64292         0.91258        -0.00875        -0.00762        -0.05597        -0.00315         0.65441         0.13758         0.05867        -0.10428
H        -0.64587        -0.96630        -0.00871        -0.00455         0.04231        -0.00309         1.21863         0.95041         0.06654        -0.12421
4
step: 7  T=      729.937K  Ek=     0.377407  Ep=     1.256153  E_gap=    13.198476  Err=       0.0000000000000000  time_stamp= 1700770925.8851
B         0.01558         0.00800         0.00278         0.00449         0.00164         0.00080        -1.29240        -1.35722        -0.20658         0.30277
H         1.12517        -0.02746        -0.00993        -0.04262        -0.00839        -0.00287        -0.28489         0.14097         0.06792        -0.06878
H        -0.64547         0.89030        -0.00996        -0.00549        -0.05457        -0.00292         0.46246         0.59424         0.06407        -0.10555
H        -0.64675        -0.94864        -0.00990        -0.00008         0.04532        -0.00282         1.11483         0.62201         0.07460        -0.12845
4
step: 8  T=      704.807K  Ek=     0.364414  Ep=     1.269024  E_gap=    13.188201  Err=       0.0000000000000000  time_stamp= 1700770926.0444
B         0.01728         0.00856         0.00308         0.00400         0.00114         0.00073        -1.46303        -1.45171        -0.22082         0.30563
H         1.10790        -0.03071        -0.01102        -0.04270        -0.00783        -0.00261         0.24420         0.14745         0.07181        -0.06634
H        -0.64731         0.86892        -0.01108        -0.00412        -0.05140        -0.00267         0.24900         1.06144         0.06790        -0.10687