4
step: 1  E_total = -475.354784864  
O        -0.61107        -0.00064         0.00009
C         0.61296        -0.00116         0.00014
H         1.21035         0.94538        -0.00091
H         1.19104        -0.92949        -0.00024
4
step: 2  E_total = -475.347552047  
O        -0.61232        -0.00105         0.00020
C         0.61653        -0.00224         0.00022
H         1.21193         0.95124        -0.00226
H         1.17221        -0.91811        -0.00153
4
step: 3  E_total = -475.338201483  
O        -0.61375        -0.00125         0.00013
C         0.61915        -0.00289         0.00046
H         1.21317         0.95798        -0.00406
H         1.15318        -0.90882        -0.00286
4
step: 4  E_total = -475.340570986  
O        -0.61453        -0.00150         0.00038
C         0.62171        -0.00289         0.00093
H         1.21315         0.96413        -0.00646
H         1.13594        -0.90244        -0.00450
4
step: 5  E_total = -475.348718734  
O        -0.61546        -0.00183         0.00042
C         0.62397        -0.00276         0.00137
H         1.21299         0.96938        -0.00923
H         1.12239        -0.90016        -0.00617
4
step: 6  E_total = -475.356322688  
O        -0.61632        -0.00191         0.00043
C         0.62600        -0.00276         0.00153
H         1.21264         0.97235        -0.01171
H         1.11358        -0.90095        -0.00759
4
step: 7  E_total = -475.348666892  
O        -0.61709        -0.00236         0.00075
C         0.62805        -0.00225         0.00206
H         1.21233         0.97252        -0.01375
H         1.10757        -0.90533        -0.00931
4
step: 8  E_total = -475.351334994  
O        -0.61789        -0.00239         0.00087
C         0.62946        -0.00101         0.00245
H         1.21092         0.97175        -0.01563
H         1.10420        -0.91371        -0.01206
4
step: 9  E_total = -475.355158898  
O        -0.61851        -0.00264         0.00059
C         0.63025         0.00067         0.00299
H         1.21049         0.97014        -0.01678
H         1.10490        -0.92518        -0.01395
4
step: 10  E_total = -475.344320537  
O        -0.61903        -0.00300         0.00034
C         0.63073         0.00245         0.00338
H         1.20964         0.96745        -0.01767
H         1.10662        -0.94072        -0.01484
