4
step: 1  T=      404.391K  Ek=  0.209086271  Ep=  1.487220856  E_gap=    13.372266  Err=       0.0000000000000000  time_stamp= 1758753276.2470
B         0.00123        -0.00054        -0.00159
H         1.21014        -0.00599         0.00569
H        -0.61860         1.03684         0.00569
H        -0.60474        -1.02503         0.00569
4
step: 2  T=      328.794K  Ek=  0.169999759  Ep=  1.526568191  E_gap=    13.315124  Err=       0.0000000000000000  time_stamp= 1758753276.3128
B         0.00247        -0.00105        -0.00316
H         1.21664        -0.01191         0.01131
H        -0.63524         1.04068         0.01131
H        -0.60784        -1.01746         0.01132
4
step: 3  T=      290.274K  Ek=  0.150083249  Ep=  1.546575583  E_gap=    13.268516  Err=       0.0000000000000000  time_stamp= 1758753276.4075
B         0.00369        -0.00151        -0.00470
H         1.21934        -0.01768         0.01680
H        -0.64963         1.04132         0.01680
H        -0.60932        -1.00746         0.01681
4
step: 4  T=      291.638K  Ek=  0.150788664  Ep=  1.545794970  E_gap=    13.233413  Err=       0.0000000000000000  time_stamp= 1758753276.4696
B         0.00491        -0.00187        -0.00618
H         1.21818        -0.02325         0.02208
H        -0.66155         1.03863         0.02208
H        -0.60925        -0.99527         0.02212
4
step: 5  T=      330.644K  Ek=  0.170956048  Ep=  1.525398265  E_gap=    13.210417  Err=       0.0000000000000000  time_stamp= 1758753276.5330
B         0.00609        -0.00213        -0.00759
H         1.21320        -0.02854         0.02710
H        -0.67082         1.03260         0.02709
H        -0.60774        -0.98120         0.02718
4
step: 6  T=      400.373K  Ek=  0.207008945  Ep=  1.488982014  E_gap=    13.199570  Err=       0.0000000000000000  time_stamp= 1758753276.5928
B         0.00725        -0.00225        -0.00891
H         1.20455        -0.03349         0.03180
H        -0.67735         1.02331         0.03177
H        -0.60497        -0.96566         0.03195
4
step: 7  T=      489.906K  Ek=  0.253301085  Ep=  1.442222653  E_gap=    13.200220  Err=       0.0000000000000000  time_stamp= 1758753276.6534
B         0.00837        -0.00221        -0.01012
H         1.19251        -0.03806         0.03611
H        -0.68109         1.01093         0.03606
H        -0.60116        -0.94912         0.03639
4
step: 8  T=      585.327K  Ek=  0.302637335  Ep=  1.392358142  E_gap=    13.211000  Err=       0.0000000000000000  time_stamp= 1758753276.7187
B         0.00944        -0.00199        -0.01122
H         1.17744        -0.04219         0.03999
H        -0.68205         0.99572         0.03990
H        -0.59660        -0.93213         0.04046
4
step: 9  T=      671.127K  Ek=  0.346999641  Ep=  1.347463784  E_gap=    13.229914  Err=       0.0000000000000000  time_stamp= 1758753276.7790
B         0.01045        -0.00157        -0.01219
H         1.15984        -0.04585         0.04341
H        -0.68033         0.97803         0.04324
H        -0.59159        -0.91530         0.04414
4
step: 10  T=      732.037K  Ek=  0.378492440  Ep=  1.315505964  E_gap=    13.254503  Err=       0.0000000000000000  time_stamp= 1758753276.8403
B         0.01140        -0.00094        -0.01303
H         1.14036        -0.04899         0.04633
H        -0.67609         0.95832         0.04606
H        -0.58650        -0.89928         0.04741
