4
step: 1  E_total = -474.251179857  
O         0.69277        -0.00035        -0.00025
C        -0.70321         0.00157         0.00110
H        -1.30847         0.92751        -0.00460
H        -1.30854        -0.94065        -0.00460
4
step: 2  E_total = -474.311612973  
O         0.69039        -0.00065        -0.00046
C        -0.69984         0.00285         0.00202
H        -1.30975         0.91692        -0.00845
H        -1.30960        -0.94065        -0.00844
4
step: 3  E_total = -474.383917888  
O         0.68746        -0.00088        -0.00062
C        -0.69597         0.00379         0.00274
H        -1.30989         0.90880        -0.01145
H        -1.30907        -0.94006        -0.01144
4
step: 4  E_total = -474.463002685  
O         0.68420        -0.00105        -0.00073
C        -0.69183         0.00441         0.00327
H        -1.30924         0.90309        -0.01368
H        -1.30726        -0.93899        -0.01365
4
step: 5  E_total = -474.545130132  
O         0.68076        -0.00117        -0.00082
C        -0.68759         0.00475         0.00365
H        -1.30809         0.89948        -0.01528
H        -1.30450        -0.93761        -0.01521
4
step: 6  E_total = -474.627676259  
O         0.67726        -0.00125        -0.00087
C        -0.68333         0.00489         0.00390
H        -1.30661         0.89756        -0.01638
H        -1.30107        -0.93602        -0.01626
4
step: 7  E_total = -474.708857659  
O         0.67373        -0.00130        -0.00090
C        -0.67910         0.00487         0.00406
H        -1.30491         0.89693        -0.01711
H        -1.29718        -0.93434        -0.01693
4
step: 8  E_total = -474.787495890  
O         0.67020        -0.00133        -0.00092
C        -0.67491         0.00475         0.00415
H        -1.30303         0.89724        -0.01755
H        -1.29298        -0.93264        -0.01731
4
step: 9  E_total = -474.862832049  
O         0.66670        -0.00135        -0.00092
C        -0.67078         0.00454         0.00419
H        -1.30099         0.89823        -0.01778
H        -1.28860        -0.93098        -0.01746
4
step: 10  E_total = -474.934388655  
O         0.66321        -0.00135        -0.00092
C        -0.66670         0.00429         0.00419
H        -1.29878         0.89967        -0.01784
H        -1.28410        -0.92942        -0.01745
