4
step: 1  E_total = -475.478466111  
O        -0.61002        -0.00015         0.00013
C         0.61145        -0.00003        -0.00054
H         1.20090         0.94090         0.00216
H         1.19595        -0.93813         0.00216
4
step: 2  E_total = -475.478414633  
O        -0.60991        -0.00031         0.00027
C         0.61318        -0.00004        -0.00108
H         1.19209         0.94181         0.00431
H         1.18237        -0.93648         0.00431
4
step: 3  E_total = -475.478305264  
O        -0.60986        -0.00045         0.00040
C         0.61492        -0.00002        -0.00161
H         1.18358         0.94290         0.00642
H         1.16942        -0.93541         0.00642
4
step: 4  E_total = -475.478161127  
O        -0.60987        -0.00060         0.00053
C         0.61661         0.00004        -0.00213
H         1.17556         0.94431         0.00849
H         1.15746        -0.93528         0.00850
4
step: 5  E_total = -475.478016931  
O        -0.60995        -0.00073         0.00065
C         0.61822         0.00015        -0.00263
H         1.16823         0.94618         0.01049
H         1.14679        -0.93637         0.01052
4
step: 6  E_total = -475.477909021  
O        -0.61007        -0.00085         0.00077
C         0.61970         0.00032        -0.00311
H         1.16175         0.94861         0.01242
H         1.13768        -0.93890         0.01248
4
step: 7  E_total = -475.477863418  
O        -0.61024        -0.00096         0.00088
C         0.62101         0.00056        -0.00358
H         1.15622         0.95164         0.01427
H         1.13029        -0.94299         0.01436
4
step: 8  E_total = -475.477886946  
O        -0.61045        -0.00106         0.00099
C         0.62213         0.00086        -0.00401
H         1.15174         0.95527         0.01602
H         1.12471        -0.94862         0.01617
4
step: 9  E_total = -475.477965562  
O        -0.61068        -0.00115         0.00108
C         0.62304         0.00121        -0.00442
H         1.14836         0.95946         0.01766
H         1.12094        -0.95565         0.01789
4
step: 10  E_total = -475.478070447  
O        -0.61093        -0.00122         0.00117
C         0.62373         0.00160        -0.00480
H         1.14609         0.96408         0.01918
H         1.11892        -0.96383         0.01950
