4
step: 1  E_total = -474.208901479  
O         0.69550        -0.00009        -0.00022
C        -0.70716         0.00135         0.00097
H        -1.30310         0.93444        -0.00405
H        -1.31018        -0.94902        -0.00405
4
step: 2  E_total = -474.208901479  
O         0.69550        -0.00019        -0.00044
C        -0.70722         0.00264         0.00193
H        -1.29938         0.92869        -0.00807
H        -1.31310        -0.95714        -0.00807
4
step: 3  E_total = -474.208901479  
O         0.69430        -0.00028        -0.00065
C        -0.70591         0.00381         0.00288
H        -1.29478         0.92307        -0.01203
H        -1.31426        -0.96400        -0.01201
4
step: 4  E_total = -474.208901479  
O         0.69190        -0.00037        -0.00085
C        -0.70322         0.00481         0.00380
H        -1.28950         0.91789        -0.01591
H        -1.31349        -0.96932        -0.01585
4
step: 5  E_total = -474.208901479  
O         0.68832        -0.00046        -0.00105
C        -0.69917         0.00560         0.00469
H        -1.28376         0.91344        -0.01968
H        -1.31069        -0.97289        -0.01953
4
step: 6  E_total = -474.208901479  
O         0.68359        -0.00055        -0.00124
C        -0.69378         0.00615         0.00554
H        -1.27775         0.90996        -0.02333
H        -1.30582        -0.97458        -0.02304
4
step: 7  E_total = -474.208901479  
O         0.67775        -0.00063        -0.00141
C        -0.68710         0.00644         0.00634
H        -1.27161         0.90764        -0.02684
H        -1.29886        -0.97433        -0.02633
4
step: 8  E_total = -474.208901479  
O         0.67085        -0.00071        -0.00157
C        -0.67918         0.00646         0.00709
H        -1.26547         0.90659        -0.03019
H        -1.28989        -0.97217        -0.02936
4
step: 9  E_total = -474.208901479  
O         0.66297        -0.00079        -0.00172
C        -0.67011         0.00621         0.00778
H        -1.25940         0.90683        -0.03337
H        -1.27903        -0.96820        -0.03213
4
step: 10  E_total = -474.208901479  
O         0.65420        -0.00087        -0.00184
C        -0.65998         0.00572         0.00841
H        -1.25340         0.90830        -0.03636
H        -1.26644        -0.96262        -0.03459
