4
step: 1  T=      168.050K  Ek=     0.086888  Ep=     2.185935  E_gap=    12.767949  Err=       0.0000000000000000  time_stamp= 1672868977.2210
 B        -0.01394        -0.00017         0.00050         0.00197        -0.00044         0.00124         2.11477        -0.10297        -0.04052         0.28824
H         1.39179         0.00745        -0.00161         0.00703         0.01851        -0.00400        -4.62909        -0.05584         0.01408        -0.10146
H        -0.61446         1.02555        -0.00188         0.00254        -0.01431        -0.00468         1.18116        -1.65826         0.01308        -0.09450
H        -0.62786        -1.03117        -0.00188        -0.03066         0.00055        -0.00467         1.33316         1.81707         0.01336        -0.09229
4
step: 2  T=      178.534K  Ek=     0.092309  Ep=     2.180515  E_gap=    12.794732  Err=       0.0000000000000000  time_stamp= 1672868977.5561
 B        -0.01300        -0.00035         0.00100         0.00271        -0.00050         0.00122         2.06359        -0.20296        -0.08049         0.28818
H         1.39105         0.01481        -0.00320        -0.01069         0.01819        -0.00392        -4.62491        -0.11081         0.02805        -0.09924
H        -0.61254         1.01856        -0.00374         0.00697        -0.02042        -0.00460         1.12957        -1.53425         0.02565        -0.09669
H        -0.63910        -1.02956        -0.00374        -0.02537         0.00757        -0.00460         1.43175         1.84802         0.02679        -0.09226
4
step: 3  T=      274.626K  Ek=     0.141993  Ep=     2.130831  E_gap=    12.849854  Err=       0.0000000000000000  time_stamp= 1672868977.8629
 B        -0.01177        -0.00057         0.00148         0.00345        -0.00059         0.00119         2.02399        -0.30199        -0.11945         0.28842
H         1.38324         0.02200        -0.00475        -0.02831         0.01768        -0.00379        -4.56633        -0.16528         0.04185        -0.09701
H        -0.60889         1.00921        -0.00556         0.01114        -0.02598        -0.00448         1.04532        -1.35823         0.03752        -0.09904
H        -0.64815        -1.02512        -0.00556        -0.01978         0.01461        -0.00447         1.49702         1.82550         0.04008        -0.09237
4
step: 4  T=      449.567K  Ek=     0.232444  Ep=     2.040380  E_gap=    12.932704  Err=       0.0000000000000000  time_stamp= 1672868978.1705
 B        -0.01024        -0.00083         0.00195         0.00417        -0.00071         0.00114         1.99123        -0.40148        -0.15686         0.28899
H         1.36841         0.02895        -0.00623        -0.04561         0.01696        -0.00361        -4.44638        -0.21939         0.05544        -0.09477
H        -0.60363         0.99778        -0.00733         0.01493        -0.03077        -0.00432         0.92710        -1.12920         0.04841        -0.10160
H        -0.65492        -1.01787        -0.00732        -0.01400         0.02148        -0.00430         1.52806         1.75007         0.05301        -0.09261
4
step: 5  T=      690.604K  Ek=     0.357070  Ep=     1.915754  E_gap=    13.041500  Err=       0.0000000000000000  time_stamp= 1672868978.4777
 B        -0.00843        -0.00114         0.00239         0.00487        -0.00088         0.00108         1.95476        -0.50131        -0.19205         0.28997
H         1.34677         0.03556        -0.00763        -0.06231         0.01603        -0.00337        -4.25162        -0.27295         0.06867        -0.09257
H        -0.59695         0.98461        -0.00902         0.01820        -0.03458        -0.00412         0.77377        -0.84687         0.05805        -0.10443
H        -0.65935        -1.00794        -0.00900        -0.00817         0.02796        -0.00408         1.52310         1.62114         0.06533        -0.09296
4
step: 6  T=      978.598K  Ek=     0.505974  Ep=     1.766849  E_gap=    13.172131  Err=       0.0000000000000000  time_stamp= 1672868978.7622
 B        -0.00635        -0.00153         0.00281         0.00557        -0.00107         0.00101         1.89668        -0.59938        -0.22421         0.29147
H         1.31859         0.04176        -0.00893        -0.07811         0.01490        -0.00309        -3.96114        -0.32517         0.08125        -0.09047
H        -0.58908         0.97012        -0.01062         0.02082        -0.03722        -0.00389         0.58499        -0.51268         0.06618        -0.10756
H        -0.66145        -0.99551        -0.01058        -0.00242         0.03384        -0.00381         1.47946         1.43724         0.07678        -0.09343
4
step: 7  T=     1287.588K  Ek=     0.665735  Ep=     1.607089  E_gap=    13.312757  Err=       0.0000000000000000  time_stamp= 1672868978.9351
 B        -0.00398        -0.00200         0.00320         0.00623        -0.00131         0.00092         1.78943        -0.69107        -0.25229         0.29363
H         1.28431         0.04748        -0.01010        -0.09256         0.01357        -0.00276        -3.54515        -0.37441         0.09265        -0.08854
H        -0.58030         0.95484        -0.01213         0.02265        -0.03849        -0.00363         0.36199        -0.13109         0.07258        -0.11105
H        -0.66129        -0.98088        -0.01204         0.00308         0.03892        -0.00350         1.39373         1.19657         0.08706        -0.09403
4
step: 8  T=     1584.467K  Ek=     0.819233  Ep=     1.453591  E_gap=    13.421842  Err=       0.0000000000000000  time_stamp= 1672868979.1152
 B        -0.00136        -0.00257         0.00355         0.00684        -0.00157         0.00083         1.59323        -0.76904        -0.27502         0.29657
H         1.24457         0.05262        -0.01114        -0.10511         0.01206        -0.00239        -2.96386        -0.41773         0.10210        -0.08688
H        -0.57096         0.93935        -0.01352         0.02357        -0.03822        -0.00334         0.10841         0.28900         0.07709        -0.11493
H        -0.65899        -0.96439        -0.01337         0.00817         0.04297        -0.00315         1.26222         0.89777         0.09584        -0.09476
4
step: 9  T=     1829.243K  Ek=     0.945792  Ep=     1.327032  E_gap=    13.474420  Err=       0.0000000000000000  time_stamp= 1672868979.2910
 B         0.00149        -0.00325         0.00386         0.00735        -0.00185         0.00073         1.25514        -0.82361        -0.29090         0.30043
H         1.20026         0.05712        -0.01201        -0.11503         0.01041        -0.00199        -2.16806        -0.45042         0.10839        -0.08557
H        -0.56145         0.92428        -0.01480         0.02348        -0.03629        -0.00305        -0.16870         0.73297         0.07974        -0.11922
H        -0.65475        -0.94652        -0.01456         0.01267         0.04576        -0.00277         1.08161         0.54106         0.10277        -0.09564
4
step: 10  T=     1976.978K  Ek=     1.022177  Ep=     1.250647  E_gap=    13.506550  Err=       0.0000000000000000  time_stamp= 1672868979.4644
 B         0.00452        -0.00405         0.00413         0.00771        -0.00215         0.00062         0.71274        -0.84379        -0.29827         0.30526
H         1.15258         0.06094        -0.01272        -0.12140         0.00866        -0.00157        -1.10487        -0.46556         0.10998        -0.08473
H        -0.55219         0.91033        -0.01596         0.02230        -0.03266        -0.00274        -0.45801         1.17975         0.08075        -0.12388
H        -0.64885        -0.92780        -0.01559         0.01639         0.04709        -0.00237         0.85014         0.12960         0.10754        -0.09666
