4
step: 1  E_total = -109.032853507  
B         0.00067         0.00133         0.00053
H         1.19341        -0.01190        -0.00191
H        -0.60656         1.03134        -0.00191
H        -0.59408        -1.03372        -0.00191
4
step: 2  E_total = -109.033025147  
B         0.00134         0.00265         0.00106
H         1.18366        -0.02367        -0.00380
H        -0.61141         1.02993        -0.00380
H        -0.58661        -1.03470        -0.00380
4
step: 3  E_total = -109.033327091  
B         0.00197         0.00395         0.00158
H         1.17107        -0.03519        -0.00564
H        -0.61450         1.02576        -0.00564
H        -0.57770        -1.03297        -0.00564
4
step: 4  E_total = -109.033735638  
B         0.00254         0.00523         0.00208
H         1.15605        -0.04633        -0.00743
H        -0.61581         1.01892        -0.00742
H        -0.56751        -1.02863        -0.00742
4
step: 5  E_total = -109.034211352  
B         0.00303         0.00646         0.00255
H         1.13912        -0.05698        -0.00912
H        -0.61539         1.00957        -0.00911
H        -0.55624        -1.02187        -0.00912
4
step: 6  E_total = -109.034696291  
B         0.00341         0.00765         0.00299
H         1.12091        -0.06704        -0.01072
H        -0.61335         0.99799        -0.01069
H        -0.54415        -1.01299        -0.01070
4
step: 7  E_total = -109.035114964  
B         0.00366         0.00879         0.00341
H         1.10215        -0.07642        -0.01221
H        -0.60985         0.98450        -0.01214
H        -0.53155        -1.00235        -0.01217
4
step: 8  E_total = -109.035382362  
B         0.00375         0.00988         0.00378
H         1.08366        -0.08507        -0.01358
H        -0.60511         0.96955        -0.01346
H        -0.51877        -0.99043        -0.01350
4
step: 9  E_total = -109.035421113  
B         0.00367         0.01091         0.00412
H         1.06628        -0.09292        -0.01482
H        -0.59939         0.95367        -0.01462
H        -0.50622        -0.97776        -0.01469
4
step: 10  E_total = -109.035185899  
B         0.00340         0.01188         0.00441
H         1.05088        -0.09994        -0.01594
H        -0.59305         0.93746        -0.01562
H        -0.49430        -0.96497        -0.01573
