4
step: 1  E_total = -475.375021212  
O        -0.61223         0.00075         0.00044
C         0.61097        -0.00051        -0.00179
H         1.20925         0.93282         0.00715
H         1.22839        -0.93866         0.00715
4
step: 2  E_total = -475.374941749  
O        -0.61428         0.00149         0.00088
C         0.61223        -0.00105        -0.00357
H         1.20870         0.92580         0.01425
H         1.24647        -0.93691         0.01425
4
step: 3  E_total = -475.374821632  
O        -0.61631         0.00221         0.00132
C         0.61353        -0.00166        -0.00532
H         1.20830         0.91922         0.02125
H         1.26367        -0.93455         0.02122
4
step: 4  E_total = -475.374681592  
O        -0.61830         0.00292         0.00174
C         0.61484        -0.00237        -0.00702
H         1.20816         0.91336         0.02809
H         1.27965        -0.93140         0.02800
4
step: 5  E_total = -475.374544246  
O        -0.62019         0.00359         0.00215
C         0.61613        -0.00320        -0.00868
H         1.20839         0.90849         0.03474
H         1.29414        -0.92736         0.03453
4
step: 6  E_total = -475.374430295  
O        -0.62194         0.00423         0.00254
C         0.61734        -0.00417        -0.01026
H         1.20907         0.90480         0.04117
H         1.30691        -0.92236         0.04073
4
step: 7  E_total = -475.374354896  
O        -0.62354         0.00484         0.00292
C         0.61845        -0.00527        -0.01177
H         1.21021         0.90243         0.04733
H         1.31776        -0.91640         0.04655
4
step: 8  E_total = -475.374325020  
O        -0.62493         0.00539         0.00327
C         0.61944        -0.00651        -0.01318
H         1.21182         0.90145         0.05319
H         1.32659        -0.90953         0.05193
4
step: 9  E_total = -475.374338552  
O        -0.62611         0.00591         0.00360
C         0.62027        -0.00787        -0.01449
H         1.21383         0.90187         0.05871
H         1.33332        -0.90187         0.05682
4
step: 10  E_total = -475.374385310  
O        -0.62704         0.00637         0.00390
C         0.62093        -0.00933        -0.01568
H         1.21613         0.90361         0.06384
H         1.33795        -0.89358         0.06117
