4
step: 1  T=      461.468K  Ek=  0.238597168  Ep=  2.103725898  E_gap=    12.835985  Err=       0.0000000000000000  time_stamp= 1758753276.9924
B        -0.01269         0.00055         0.00173
H         1.37922        -0.00886        -0.00558
H        -0.62848         1.02290        -0.00651
H        -0.61468        -1.01989        -0.00651
4
step: 2  T=      618.632K  Ek=  0.319857468  Ep=  2.022465597  E_gap=    12.925560  Err=       0.0000000000000000  time_stamp= 1758753277.0571
B        -0.01050         0.00110         0.00345
H         1.36607        -0.01763        -0.01108
H        -0.64039         1.01320        -0.01294
H        -0.61301        -1.00738        -0.01294
4
step: 3  T=      838.638K  Ek=  0.433609155  Ep=  1.908713910  E_gap=    13.037418  Err=       0.0000000000000000  time_stamp= 1758753277.1194
B        -0.00804         0.00167         0.00512
H         1.34613        -0.02619        -0.01643
H        -0.65022         1.00105        -0.01924
H        -0.60969        -0.99277        -0.01925
4
step: 4  T=     1103.741K  Ek=  0.570678202  Ep=  1.771644863  E_gap=    13.166360  Err=       0.0000000000000000  time_stamp= 1758753277.1812
B        -0.00530         0.00226         0.00674
H         1.31966        -0.03445        -0.02156
H        -0.65793         0.98664        -0.02533
H        -0.60488        -0.97648        -0.02536
4
step: 5  T=     1389.571K  Ek=  0.718463926  Ep=  1.623859139  E_gap=    13.283537  Err=       0.0000000000000000  time_stamp= 1758753277.2479
B        -0.00231         0.00289         0.00828
H         1.28708        -0.04231        -0.02640
H        -0.66350         0.97028        -0.03115
H        -0.59882        -0.95900        -0.03122
4
step: 6  T=     1664.834K  Ek=  0.860786017  Ep=  1.481537048  E_gap=    13.324010  Err=       0.0000000000000000  time_stamp= 1758753277.3127
B         0.00091         0.00357         0.00972
H         1.24899        -0.04968        -0.03087
H        -0.66699         0.95232        -0.03664
H        -0.59180        -0.94089        -0.03679
4
step: 7  T=     1891.608K  Ek=  0.978036988  Ep=  1.364286078  E_gap=    13.327168  Err=       0.0000000000000000  time_stamp= 1758753277.3772
B         0.00433         0.00430         0.01106
H         1.20623        -0.05646        -0.03491
H        -0.66854         0.93320        -0.04173
H        -0.58416        -0.92282        -0.04201
4
step: 8  T=     2027.172K  Ek=  1.048128915  Ep=  1.294194151  E_gap=    13.321870  Err=       0.0000000000000000  time_stamp= 1758753277.4389
B         0.00790         0.00509         0.01228
H         1.15995        -0.06258        -0.03848
H        -0.66833         0.91344        -0.04638
H        -0.57631        -0.90549        -0.04688
4
step: 9  T=     2029.106K  Ek=  1.049129085  Ep=  1.293193981  E_gap=    13.311877  Err=       0.0000000000000000  time_stamp= 1758753277.5030
B         0.01153         0.00597         0.01338
H         1.11169        -0.06800        -0.04155
H        -0.66661         0.89362        -0.05055
H        -0.56869        -0.88963        -0.05135
4
step: 10  T=     1865.873K  Ek=  0.964730833  Ep=  1.377592233  E_gap=    13.297536  Err=       0.0000000000000000  time_stamp= 1758753277.5687
B         0.01510         0.00693         0.01434
H         1.06347        -0.07272        -0.04412
H        -0.66370         0.87437        -0.05420
H        -0.56176        -0.87597        -0.05543
