4
step: 1  T=      400.000K  Ek=     0.206816  Ep=     2.129391  E_gap=    12.830481  Err=       0.0000000000000000  time_stamp= 1672868986.3305
 B        -0.01247         0.00077        -0.00032         0.00574         0.00197        -0.00080         2.03671         0.01812         0.02559         0.28827
H         1.38263        -0.00972         0.00102        -0.01609        -0.02472         0.00258        -4.56181         0.07288        -0.00893        -0.09893
H        -0.63146         1.02336         0.00119        -0.04062        -0.02036         0.00302         1.32760        -1.71371        -0.00840        -0.09289
H        -0.61740        -1.02188         0.00119        -0.00488         0.02396         0.00302         1.19750         1.62271        -0.00827        -0.09645
4
step: 2  T=      400.000K  Ek=     0.206816  Ep=     2.070398  E_gap=    12.919325  Err=       0.0000000000000000  time_stamp= 1672868986.7046
 B        -0.01003         0.00156        -0.00064         0.00569         0.00175        -0.00070         1.89753         0.03898         0.05150         0.28818
H         1.37270        -0.01955         0.00204        -0.02949        -0.02144         0.00224        -4.48446         0.14689        -0.01807        -0.09415
H        -0.64669         1.01390         0.00239        -0.03120        -0.02364         0.00262         1.42601        -1.64528        -0.01699        -0.09337
H        -0.61843        -1.01105         0.00239        -0.00032         0.02635         0.00262         1.16091         1.45940        -0.01645        -0.10066
4
step: 3  T=      400.000K  Ek=     0.206816  Ep=     1.982957  E_gap=    13.020302  Err=       0.0000000000000000  time_stamp= 1672868987.0784
 B        -0.00762         0.00226        -0.00091         0.00532         0.00148        -0.00057         1.77488         0.06047         0.07376         0.28840
H         1.35747        -0.02801         0.00292        -0.03893        -0.01741         0.00180        -4.35381         0.21155        -0.02606        -0.09000
H        -0.65808         1.00318         0.00342        -0.02150        -0.02495         0.00213         1.48226        -1.53838        -0.02443        -0.09386
H        -0.61767        -0.99939         0.00342         0.00335         0.02649         0.00214         1.09668         1.26635        -0.02327        -0.10454
4
step: 4  T=      400.000K  Ek=     0.206816  Ep=     1.879045  E_gap=    13.122778  Err=       0.0000000000000000  time_stamp= 1672868987.4520
 B        -0.00536         0.00285        -0.00113         0.00485         0.00123        -0.00044         1.66516         0.08087         0.09153         0.28895
H         1.33857        -0.03482         0.00363        -0.04512        -0.01347         0.00138        -4.17395         0.26464        -0.03258        -0.08664
H        -0.66555         0.99203         0.00426        -0.01290        -0.02497         0.00166         1.49754        -1.40339        -0.03041        -0.09433
H        -0.61549        -0.98783         0.00426         0.00603         0.02526         0.00166         1.01125         1.05788        -0.02853        -0.10798
4
step: 5  T=      400.000K  Ek=     0.206816  Ep=     1.768744  E_gap=    13.213961  Err=       0.0000000000000000  time_stamp= 1672868987.8237
 B        -0.00331         0.00335        -0.00130         0.00438         0.00102        -0.00033         1.56013         0.09802         0.10485         0.28983
H         1.31732        -0.04000         0.00415        -0.04905        -0.01001         0.00101        -3.94816         0.30603        -0.03760        -0.08404
H        -0.66956         0.98096         0.00490        -0.00582        -0.02429         0.00124         1.47684        -1.24869        -0.03492        -0.09481
H        -0.61230        -0.97692         0.00490         0.00785         0.02336         0.00125         0.91119         0.84464        -0.03233        -0.11098
4
step: 6  T=      400.000K  Ek=     0.206816  Ep=     1.659386  E_gap=    13.277726  Err=       0.0000000000000000  time_stamp= 1672868988.1966
 B        -0.00144         0.00377        -0.00142         0.00398         0.00086        -0.00023         1.45002         0.10978         0.11420         0.29101
H         1.29468        -0.04377         0.00453        -0.05153        -0.00711         0.00069        -3.67809         0.33661        -0.04121        -0.08213
H        -0.67076         0.97029         0.00536        -0.00021        -0.02328         0.00089         1.42600        -1.08021        -0.03810        -0.09530
H        -0.60846        -0.96692         0.00538         0.00901         0.02121         0.00091         0.80207         0.63381        -0.03488        -0.11358
4
step: 7  T=      400.000K  Ek=     0.206816  Ep=     1.555986  E_gap=    13.314777  Err=       0.0000000000000000  time_stamp= 1672868988.5766
 B         0.00026         0.00412        -0.00151         0.00366         0.00073        -0.00016         1.32519         0.11428         0.12017         0.29247
H         1.27125        -0.04636         0.00477        -0.05314        -0.00472         0.00043        -3.36389         0.35753        -0.04356        -0.08080
H        -0.66975         0.96015         0.00569         0.00417        -0.02213         0.00060         1.35044        -0.90198        -0.04016        -0.09582
H        -0.60424        -0.95795         0.00572         0.00970         0.01900         0.00063         0.68826         0.43017        -0.03645        -0.11585
4
step: 8  T=      400.000K  Ek=     0.206816  Ep=     1.461955  E_gap=    13.340845  Err=       0.0000000000000000  time_stamp= 1672868988.9454
 B         0.00182         0.00442        -0.00156         0.00341         0.00064        -0.00009         1.17673         0.11002         0.12334         0.29419
H         1.24741        -0.04797         0.00491        -0.05424        -0.00277         0.00022        -3.00449         0.36986        -0.04481        -0.07996
H        -0.66705         0.95061         0.00590         0.00760        -0.02094         0.00037         1.25467        -0.71679        -0.04129        -0.09639
H        -0.59984        -0.95002         0.00594         0.01006         0.01683         0.00041         0.57309         0.23691        -0.03724        -0.11785
4
step: 9  T=      400.000K  Ek=     0.206816  Ep=     1.379682  E_gap=    13.363962  Err=       0.0000000000000000  time_stamp= 1672868989.3128
 B         0.00326         0.00468        -0.00159         0.00322         0.00057        -0.00004         0.99667         0.09590         0.12418         0.29615
H         1.22342        -0.04880         0.00497        -0.05501        -0.00113         0.00004        -2.59804         0.37449        -0.04508        -0.07952
H        -0.66304         0.94169         0.00602         0.01032        -0.01975         0.00018         1.14229        -0.52671        -0.04165        -0.09700
H        -0.59537        -0.94311         0.00608         0.01019         0.01473         0.00022         0.45908         0.05632        -0.03745        -0.11963
4
step: 10  T=      400.000K  Ek=     0.206816  Ep=     1.310929  E_gap=    13.386495  Err=       0.0000000000000000  time_stamp= 1672868989.6807
 B         0.00462         0.00492        -0.00160         0.00306         0.00052         0.00000         0.77802         0.07112         0.12306         0.29832
H         1.19942        -0.04896         0.00495        -0.05559         0.00026        -0.00011        -2.14234         0.37209        -0.04448        -0.07943
H        -0.65804         0.93338         0.00606         0.01254        -0.01856         0.00002         1.01616        -0.33332        -0.04138        -0.09766
H        -0.59095        -0.93717         0.00614         0.01018         0.01269         0.00007         0.34816        -0.10990        -0.03721        -0.12123
