4
step: 1  T=      402.886K  Ek=     0.208308  Ep=    -1.357583  E_gap=    11.609125  Err=       0.0000000000000000  time_stamp= 1672868968.9851
 O        -0.60840         0.00021        -0.00082         0.00436         0.00053        -0.00204        -1.20962        -0.01875         0.06276        -0.27145
 C         0.60796        -0.00037         0.00330        -0.00441        -0.00093         0.00822         1.18724         0.00516        -0.19603         0.14292
H         1.20457         0.93623        -0.01319        -0.01302        -0.00933        -0.03284         0.02785         0.04689         0.06647         0.06393
H         1.20832        -0.93520        -0.01319        -0.00370         0.01194        -0.03284        -0.00547        -0.03329         0.06679         0.06460
4
step: 2  T=      384.415K  Ek=     0.198758  Ep=    -1.347987  E_gap=    11.621471  Err=       0.0000000000000000  time_stamp= 1672868969.2890
 O        -0.60672         0.00043        -0.00163         0.00402         0.00053        -0.00201        -1.64670        -0.03709         0.12303        -0.27030
 C         0.60627        -0.00074         0.00658        -0.00398        -0.00093         0.00813         1.43705         0.00960        -0.38224         0.14519
H         1.19938         0.93254        -0.02627        -0.01270        -0.00887        -0.03246         0.13774         0.18962         0.12896         0.06188
H         1.20684        -0.93045        -0.02627        -0.00357         0.01157        -0.03246         0.07192        -0.16213         0.13025         0.06322
4
step: 3  T=      357.740K  Ek=     0.184966  Ep=    -1.334125  E_gap=    11.629219  Err=       0.0000000000000000  time_stamp= 1672868969.5930
 O        -0.60519         0.00064        -0.00243         0.00357         0.00052        -0.00198        -2.04650        -0.05510         0.18164        -0.26922
 C         0.60477        -0.00111         0.00980        -0.00349        -0.00092         0.00798         1.66233         0.01491        -0.55957         0.14722
H         1.19441         0.92913        -0.03915        -0.01198        -0.00789        -0.03185         0.24033         0.32186         0.18756         0.06000
H         1.20546        -0.92594        -0.03915        -0.00316         0.01072        -0.03184         0.14384        -0.28166         0.19038         0.06200
4
step: 4  T=      325.264K  Ek=     0.168174  Ep=    -1.317248  E_gap=    11.632100  Err=       0.0000000000000000  time_stamp= 1672868969.8963
 O        -0.60386         0.00084        -0.00321         0.00303         0.00050        -0.00193        -2.39673        -0.07256         0.23830        -0.26824
 C         0.60348        -0.00148         0.01296        -0.00292        -0.00092         0.00777         1.86082         0.02239        -0.72828         0.14893
H         1.18980         0.92622        -0.05175        -0.01088        -0.00644        -0.03103         0.33004         0.43546         0.24261         0.05832
H         1.20431        -0.92187        -0.05174        -0.00249         0.00944        -0.03100         0.20587        -0.38530         0.24737         0.06099
4
step: 5  T=      289.796K  Ek=     0.149836  Ep=    -1.298822  E_gap=    11.630009  Err=       0.0000000000000000  time_stamp= 1672868970.2008
 O        -0.60276         0.00104        -0.00397         0.00242         0.00048        -0.00186        -2.68623        -0.08917         0.29274        -0.26739
 C         0.60243        -0.00185         0.01602        -0.00229        -0.00091         0.00751         2.03024         0.03324        -0.88932         0.15024
H         1.18570         0.92398        -0.06398        -0.00948        -0.00461        -0.03000         0.40193         0.52319         0.29488         0.05691
H         1.20347        -0.91839        -0.06396        -0.00161         0.00781        -0.02995         0.25406        -0.46727         0.30170         0.06024
4
step: 6  T=      254.144K  Ek=     0.131402  Ep=    -1.280313  E_gap=    11.623012  Err=       0.0000000000000000  time_stamp= 1672868970.5332
 O        -0.60192         0.00122        -0.00470         0.00175         0.00046        -0.00179        -2.90550        -0.10468         0.34469        -0.26667
 C         0.60164        -0.00221         0.01897        -0.00162        -0.00090         0.00720         2.16798         0.04842        -1.04404         0.15110
H         1.18221         0.92254        -0.07575        -0.00785        -0.00250        -0.02878         0.45218         0.57945         0.34533         0.05580
H         1.20303        -0.91563        -0.07571        -0.00057         0.00591        -0.02870         0.28534        -0.52319         0.35403         0.05977
4
step: 7  T=      220.713K  Ek=     0.114118  Ep=    -1.262973  E_gap=    11.611343  Err=       0.0000000000000000  time_stamp= 1672868970.6995
 O        -0.60137         0.00140        -0.00540         0.00103         0.00043        -0.00170        -3.04727        -0.11889         0.39387        -0.26611
 C         0.60114        -0.00257         0.02178        -0.00091        -0.00088         0.00684         2.27092         0.06844        -1.19384         0.15147
H         1.17942         0.92198        -0.08700        -0.00607        -0.00024        -0.02736         0.47852         0.60087         0.39496         0.05503
H         1.20302        -0.91366        -0.08691         0.00054         0.00386        -0.02724         0.29783        -0.55043         0.40501         0.05962
4
step: 8  T=      191.205K  Ek=     0.098861  Ep=    -1.247686  E_gap=    11.595406  Err=       0.0000000000000000  time_stamp= 1672868970.8698
 O        -0.60110         0.00157        -0.00606         0.00029         0.00040        -0.00160        -3.10691        -0.13166         0.44043        -0.26573
 C         0.60092        -0.00291         0.02444        -0.00017        -0.00085         0.00643         2.33546         0.09341        -1.34031         0.15133
H         1.17736         0.92235        -0.09764        -0.00423         0.00204        -0.02575         0.48042         0.58666         0.44464         0.05460
H         1.20346        -0.91254        -0.09750         0.00167         0.00175        -0.02560         0.29102        -0.54841         0.45523         0.05979
4
step: 9  T=      166.464K  Ek=     0.086068  Ep=    -1.234891  E_gap=    11.575751  Err=       0.0000000000000000  time_stamp= 1672868971.0364
 O        -0.60114         0.00172        -0.00667        -0.00046         0.00037        -0.00148        -3.08266        -0.14307         0.48538        -0.26553
 C         0.60100        -0.00325         0.02693         0.00059        -0.00082         0.00598         2.35761         0.12301        -1.48549         0.15070
H         1.17604         0.92361        -0.10760        -0.00243         0.00419        -0.02395         0.45922         0.53865         0.49498         0.05454
H         1.20435        -0.91226        -0.10739         0.00274        -0.00029        -0.02376         0.26583        -0.51859         0.50513         0.06029
4
step: 10  T=      146.528K  Ek=     0.075761  Ep=    -1.224607  E_gap=    11.553073  Err=       0.0000000000000000  time_stamp= 1672868971.2055
 O        -0.60147         0.00186        -0.00724        -0.00119         0.00033        -0.00136        -2.97571        -0.15290         0.52723        -0.26553
 C         0.60139        -0.00357         0.02923         0.00134        -0.00077         0.00548         2.33354         0.15603        -1.62726         0.14962
H         1.17542         0.92570        -0.11680        -0.00075         0.00610        -0.02196         0.41769         0.46105         0.54567         0.05482
H         1.20565        -0.91277        -0.11651         0.00368        -0.00217        -0.02173         0.22448        -0.46417         0.55436         0.06109
