4
step: 1  T=      524.554K  Ek=     0.271215  Ep=     1.383468  E_gap=    13.441061  Err=       0.0000000000000000  time_stamp= 1672868999.0235
 B        -0.00154         0.00080        -0.00097        -0.00382         0.00203        -0.00251         1.99959        -0.38004        -2.20380         0.29367
H         1.20435        -0.00889         0.00333         0.00572        -0.02197         0.00896        -2.54575        -0.58034        -0.44149        -0.09746
H        -0.59868         1.01506         0.00401         0.00477        -0.04000         0.00896         1.50133        -1.04877         0.50279        -0.09627
H        -0.58911        -1.01475         0.00303         0.03052         0.04016         0.00899         1.26968         1.29843        -0.07895        -0.09994
4
step: 2  T=      623.869K  Ek=     0.322565  Ep=     1.331952  E_gap=    13.447680  Err=       0.0000000000000000  time_stamp= 1672868999.3977
 B        -0.00306         0.00163        -0.00200        -0.00366         0.00204        -0.00268         1.68180        -0.38519         0.43955         0.29591
H         1.20457        -0.01808         0.00669        -0.00385        -0.02201         0.00956        -2.19063         0.33142        -0.41950        -0.09889
H        -0.59575         0.99829         0.00810         0.00859        -0.04392         0.00958         0.89397        -0.97073         0.60292        -0.09477
H        -0.57605        -0.99765         0.00669         0.03448         0.04409         0.00962         0.90635         0.73636         0.52477        -0.10225
4
step: 3  T=      715.716K  Ek=     0.370054  Ep=     1.288316  E_gap=    13.461523  Err=       0.0000000000000000  time_stamp= 1672868999.7722
 B        -0.00447         0.00243        -0.00311        -0.00323         0.00213        -0.00268         1.39323         1.04287        -0.99956         0.29876
H         1.20128        -0.02662         0.01013        -0.01225        -0.02214         0.00955        -2.12236        -0.21812        -0.13836        -0.10052
H        -0.59170         0.98000         0.01233         0.01064        -0.04778         0.00959         0.11153        -1.10729        -0.45225        -0.09355
H        -0.56164        -0.97944         0.01088         0.03629         0.04710         0.00964         0.23994         0.76811        -0.29233        -0.10470
4
step: 4  T=      766.266K  Ek=     0.396190  Ep=     1.261110  E_gap=    13.482557  Err=       0.0000000000000000  time_stamp= 1672869000.1452
 B        -0.00564         0.00333        -0.00415        -0.00265         0.00212        -0.00259        -0.87649        -0.27162         0.71702         0.30220
H         1.19477        -0.03566         0.01395        -0.02056        -0.02104         0.00917        -2.48234         0.69302         0.00148        -0.10202
H        -0.58734         0.96001         0.01592         0.01252        -0.04977         0.00927         0.75513         0.24980        -0.20277        -0.09254
H        -0.54692        -0.96004         0.01462         0.03642         0.04804         0.00933        -0.58413        -0.12209         0.34903        -0.10763
4
step: 5  T=      726.768K  Ek=     0.375768  Ep=     1.255937  E_gap=    13.510076  Err=       0.0000000000000000  time_stamp= 1672869000.5493
 B        -0.00659         0.00413        -0.00518        -0.00208         0.00193        -0.00230         3.30837        -1.15573         1.88074         0.30606
H         1.18482        -0.04358         0.01757        -0.02761        -0.01721         0.00814        -1.26103         1.16834        -0.64390        -0.10359
H        -0.58157         0.94027         0.01943         0.01574        -0.04844         0.00826         0.95537         0.49152        -0.73826        -0.09194
H        -0.53262        -0.94095         0.01857         0.03424         0.04497         0.00832        -0.72128        -1.44817        -0.06583        -0.11053
4
step: 6  T=      637.079K  Ek=     0.329396  Ep=     1.274611  E_gap=    13.540673  Err=       0.0000000000000000  time_stamp= 1672869000.9244
 B        -0.00731         0.00487        -0.00599        -0.00132         0.00172        -0.00189         0.66377        -0.69762         0.28409         0.31009
H         1.17269        -0.04952         0.02031        -0.03368        -0.01439         0.00661        -1.90140         0.60783        -0.73017        -0.10519
H        -0.57467         0.92132         0.02214         0.01634        -0.04370         0.00678        -0.92807         1.79017        -0.47472        -0.09170
H        -0.51960        -0.92402         0.02182         0.03153         0.03961         0.00684        -0.44434        -1.55436         0.25573        -0.11320
4
step: 7  T=      546.382K  Ek=     0.282502  Ep=     1.311417  E_gap=    13.573870  Err=       0.0000000000000000  time_stamp= 1672869001.2959
 B        -0.00765         0.00550        -0.00669        -0.00047         0.00163        -0.00186         1.11811        -1.74972        -1.02540         0.31398
H         1.15790        -0.05482         0.02243        -0.03936        -0.01255         0.00638        -1.31364         0.38150         0.20778        -0.10661
H        -0.56870         0.90520         0.02453         0.01564        -0.03727         0.00677         0.13362         1.30987         0.35634        -0.09156
H        -0.50719        -0.90937         0.02479         0.02873         0.03229         0.00679        -1.14849        -2.54065        -0.04048        -0.11582
4
step: 8  T=      457.855K  Ek=     0.236729  Ep=     1.359442  E_gap=    13.603807  Err=       0.0000000000000000  time_stamp= 1672869001.7018
 B        -0.00769         0.00617        -0.00748         0.00043         0.00162        -0.00188         3.05772         0.00607         2.05949         0.31759
H         1.14122        -0.05940         0.02517        -0.04304        -0.01116         0.00626        -0.67983         0.32519         0.02400        -0.10795
H        -0.56228         0.89144         0.02753         0.01349        -0.03076         0.00693        -1.45838         1.85794         0.00676        -0.09141
H        -0.49651        -0.89826         0.02750         0.02491         0.02454         0.00697        -0.82094        -1.73572        -0.13146        -0.11824
4
step: 9  T=      363.573K  Ek=     0.187982  Ep=     1.411715  E_gap=    13.631364  Err=       0.0000000000000000  time_stamp= 1672869002.0733
 B        -0.00730         0.00680        -0.00819         0.00147         0.00149        -0.00154         3.01694        -1.09541         2.44213         0.32070
H         1.12348        -0.06364         0.02758        -0.04568        -0.01041         0.00487        -0.63463         0.22253        -0.46609        -0.10881
H        -0.55801         0.88053         0.03020         0.00904        -0.02157         0.00576        -1.01452         2.78792         0.35895        -0.09122
H        -0.48718        -0.88979         0.03008         0.02087         0.01606         0.00588        -1.10947        -2.86178        -1.06140        -0.12067
4
step: 10  T=      297.918K  Ek=     0.154036  Ep=     1.452663  E_gap=    13.653861  Err=       0.0000000000000000  time_stamp= 1672869002.4474
 B        -0.00651         0.00737        -0.00870         0.00233         0.00127        -0.00132         2.53447        -2.42705         1.38087         0.32302
H         1.10470        -0.06758         0.02910        -0.04724        -0.00874         0.00392        -0.06996         0.39311         0.14485        -0.10936
H        -0.55518         0.87409         0.03271         0.00557        -0.01128         0.00507        -0.70996         2.35953         0.21279        -0.09085
H        -0.47970        -0.88551         0.03155         0.01672         0.00641         0.00520        -1.01330        -2.41953         0.23684        -0.12282
