4
step: 1  T=      393.362K  Ek=     0.203384  Ep=    -1.361220  E_gap=    11.605947  Err=       0.0000000000000000  time_stamp= 1672955483.0263
 O        -0.60931         0.00011        -0.00034         0.00215         0.00027        -0.00086        -0.86773        -0.00883         0.02605        -0.27521
 C         0.61110        -0.00022         0.00139         0.00337        -0.00055         0.00346         0.68791         0.01469        -0.08164         0.13945
H         1.19403         0.94599        -0.00555        -0.03922         0.01486        -0.01381         0.09389        -0.05299         0.02780         0.06770
H         1.19573        -0.94510        -0.00555        -0.03501        -0.01265        -0.01381         0.08593         0.04712         0.02779         0.06806
4
step: 2  T=      381.673K  Ek=     0.197340  Ep=    -1.355142  E_gap=    11.616142  Err=       0.0000000000000000  time_stamp= 1672955483.3749
 O        -0.60849         0.00022        -0.00068         0.00193         0.00027        -0.00085        -0.97049        -0.01793         0.05306        -0.27779
 C         0.61249        -0.00044         0.00277         0.00355        -0.00054         0.00342         0.45008         0.03066        -0.16117         0.13816
H         1.17842         0.95189        -0.01105        -0.03853         0.01475        -0.01366         0.26785        -0.00755         0.05409         0.06947
H         1.18179        -0.95012        -0.01105        -0.03436        -0.01257        -0.01366         0.25255        -0.00518         0.05403         0.07016
4
step: 3  T=      360.719K  Ek=     0.186506  Ep=    -1.344250  E_gap=    11.622979  Err=       0.0000000000000000  time_stamp= 1672955483.7439
 O        -0.60776         0.00033        -0.00102         0.00168         0.00026        -0.00083        -1.05465        -0.02727         0.08047        -0.28039
 C         0.61394        -0.00065         0.00412         0.00366        -0.00053         0.00336         0.21123         0.04773        -0.23773         0.13667
H         1.16321         0.95778        -0.01647        -0.03719         0.01479        -0.01340         0.43275         0.03232         0.07872         0.07137
H         1.16824        -0.95516        -0.01647        -0.03309        -0.01268        -0.01340         0.41067        -0.05277         0.07854         0.07234
4
step: 4  T=      332.034K  Ek=     0.171675  Ep=    -1.329345  E_gap=    11.626435  Err=       0.0000000000000000  time_stamp= 1672955484.1064
 O        -0.60714         0.00043        -0.00135         0.00142         0.00026        -0.00081        -1.11861        -0.03675         0.10803        -0.28296
 C         0.61541        -0.00086         0.00545         0.00369        -0.00051         0.00327        -0.02031         0.06553        -0.31129         0.13498
H         1.14867         0.96373        -0.02177        -0.03524         0.01497        -0.01306         0.58370         0.06069         0.10181         0.07338
H         1.15532        -0.96027        -0.02178        -0.03124        -0.01296        -0.01306         0.55522        -0.08947         0.10144         0.07460
4
step: 5  T=      297.638K  Ek=     0.153891  Ep=    -1.311482  E_gap=    11.626639  Err=       0.0000000000000000  time_stamp= 1672955484.4710
 O        -0.60663         0.00053        -0.00167         0.00114         0.00025        -0.00078        -1.16093        -0.04623         0.13547        -0.28546
 C         0.61689        -0.00106         0.00674         0.00365        -0.00049         0.00316        -0.23753         0.08355        -0.38205         0.13308
H         1.13502         0.96976        -0.02692        -0.03275         0.01523        -0.01263         0.71662         0.07242         0.12362         0.07547
H         1.14325        -0.96552        -0.02692        -0.02887        -0.01334        -0.01263         0.68185        -0.10974         0.12296         0.07691
4
step: 6  T=      259.768K  Ek=     0.134311  Ep=    -1.291825  E_gap=    11.623854  Err=       0.0000000000000000  time_stamp= 1672955484.8356
 O        -0.60623         0.00063        -0.00197         0.00086         0.00023        -0.00074        -1.18053        -0.05558         0.16245        -0.28785
 C         0.61833        -0.00125         0.00798         0.00354        -0.00046         0.00302        -0.43523         0.10112        -0.45035         0.13100
H         1.12246         0.97591        -0.03188        -0.02979         0.01549        -0.01211         0.82850         0.06371         0.14444         0.07761
H         1.13222        -0.97094        -0.03188        -0.02606        -0.01376        -0.01212         0.78726        -0.10925         0.14345         0.07924
4
step: 7  T=      220.605K  Ek=     0.114061  Ep=    -1.271511  E_gap=    11.618456  Err=       0.0000000000000000  time_stamp= 1672955485.2142
 O        -0.60594         0.00072        -0.00226         0.00058         0.00022        -0.00070        -1.17684        -0.06465         0.18862        -0.29009
 C         0.61972        -0.00143         0.00916         0.00337        -0.00042         0.00287        -0.61011         0.11754        -0.51651         0.12877
H         1.11118         0.98215        -0.03661        -0.02645         0.01567        -0.01152         0.91755         0.03247         0.16463         0.07977
H         1.12240        -0.97653        -0.03662        -0.02289        -0.01413        -0.01153         0.86940        -0.08536         0.16326         0.08154
4
step: 8  T=      182.059K  Ek=     0.094132  Ep=    -1.251530  E_gap=    11.610898  Err=       0.0000000000000000  time_stamp= 1672955485.5827
 O        -0.60576         0.00080        -0.00253         0.00030         0.00020        -0.00065        -1.14999        -0.07330         0.21359        -0.29215
 C         0.62103        -0.00159         0.01027         0.00315        -0.00038         0.00269        -0.76069         0.13211        -0.58078         0.12645
H         1.10130         0.98845        -0.04109        -0.02281         0.01569        -0.01085         0.98320        -0.02136         0.18445         0.08190
H         1.11391        -0.98225        -0.04111        -0.01945        -0.01437        -0.01087         0.92748        -0.03745         0.18273         0.08380
4
step: 9  T=      145.663K  Ek=     0.075314  Ep=    -1.232675  E_gap=    11.601691  Err=       0.0000000000000000  time_stamp= 1672955485.9308
 O        -0.60570         0.00088        -0.00278         0.00003         0.00018        -0.00060        -1.10091        -0.08136         0.23702        -0.29400
 C         0.62224        -0.00173         0.01131         0.00289        -0.00034         0.00249        -0.88703         0.14423        -0.64314         0.12410
H         1.09293         0.99471        -0.04529        -0.01897         0.01547        -0.01011         1.02598        -0.09592         0.20406         0.08396
H         1.10684        -0.98802        -0.04532        -0.01583        -0.01437        -0.01013         0.96196         0.03305         0.20205         0.08595
4
step: 10  T=      112.556K  Ek=     0.058196  Ep=    -1.215531  E_gap=    11.591365  Err=       0.0000000000000000  time_stamp= 1672955486.2997
 O        -0.60574         0.00095        -0.00301        -0.00023         0.00016        -0.00054        -1.03134        -0.08871         0.25858        -0.29562
 C         0.62333        -0.00186         0.01226         0.00258        -0.00029         0.00228        -0.99033         0.15349        -0.70331         0.12177
H         1.08613         1.00082        -0.04918        -0.01500         0.01493        -0.00929         1.04733        -0.18763         0.22345         0.08589
H         1.10125        -0.99375        -0.04921        -0.01212        -0.01408        -0.00932         0.97433         0.12285         0.22128         0.08796
