4
step: 1  E_total = -475.379333249  
O        -0.61206        -0.00002        -0.00050
C         0.61218         0.00163         0.00205
H         1.20321         0.93383        -0.00838
H         1.21601        -0.95180        -0.00819
4
step: 2  E_total = -475.383525324  
O        -0.61388         0.00017        -0.00112
C         0.61449         0.00282         0.00404
H         1.19678         0.92830        -0.01694
H         1.22301        -0.96220        -0.01647
4
step: 3  E_total = -475.379713995  
O        -0.61570         0.00023        -0.00147
C         0.61678         0.00383         0.00619
H         1.19010         0.92375        -0.02546
H         1.22975        -0.97199        -0.02582
4
step: 4  E_total = -475.386035248  
O        -0.61736         0.00036        -0.00182
C         0.61922         0.00469         0.00813
H         1.18505         0.91880        -0.03431
H         1.23459        -0.97918        -0.03441
4
step: 5  E_total = -475.378183489  
O        -0.61901         0.00059        -0.00234
C         0.62133         0.00521         0.01019
H         1.18196         0.91443        -0.04155
H         1.23817        -0.98512        -0.04294
4
step: 6  E_total = -475.382180081  
O        -0.62058         0.00054        -0.00268
C         0.62324         0.00566         0.01235
H         1.18025         0.91155        -0.04907
H         1.24042        -0.98828        -0.05085
4
step: 7  E_total = -475.370331117  
O        -0.62206         0.00039        -0.00304
C         0.62518         0.00566         0.01424
H         1.18028         0.91048        -0.05717
H         1.23930        -0.98926        -0.05808
4
step: 8  E_total = -475.368591117  
O        -0.62342         0.00045        -0.00351
C         0.62701         0.00543         0.01615
H         1.18173         0.91161        -0.06462
H         1.23673        -0.98762        -0.06475
4
step: 9  E_total = -475.374022802  
O        -0.62445         0.00026        -0.00398
C         0.62836         0.00506         0.01778
H         1.18432         0.91451        -0.07194
H         1.23207        -0.98345        -0.07135
4
step: 10  E_total = -475.373110151  
O        -0.62522        -0.00003        -0.00444
C         0.62918         0.00451         0.01947
H         1.18874         0.91929        -0.07902
H         1.22641        -0.97845        -0.07716
