4
step: 1  T=      380.212K  Ek=     0.196585  Ep=     1.468534  E_gap=    13.372578  Err=       0.0000000000000000  time_stamp= 1672955543.7502
 B        -0.00088         0.00225         0.00077        -0.00229         0.00569         0.00211         0.04226         1.20517         2.36790         0.29116
H         1.21635        -0.01132        -0.00288         0.03632        -0.02932        -0.00753        -2.36755         0.13388         0.29947        -0.09590
H        -0.60659         1.02025        -0.00304        -0.01375        -0.02745        -0.00754         1.01238        -1.77864        -0.70407        -0.09602
H        -0.60028        -1.03303        -0.00236         0.00195        -0.00426        -0.00753         1.90601         1.53808        -0.15719        -0.09923
4
step: 2  T=      364.067K  Ek=     0.188237  Ep=     1.489903  E_gap=    13.307846  Err=       0.0000000000000000  time_stamp= 1672955544.0718
 B        -0.00183         0.00455         0.00168        -0.00232         0.00560         0.00243         1.93002         0.82535         0.71404         0.29097
H         1.22904        -0.02301        -0.00577         0.02725        -0.02997        -0.00865        -2.18365         0.20849        -0.11911        -0.09552
H        -0.61135         1.00784        -0.00670        -0.00990        -0.03338        -0.00872         0.86705        -1.25730        -0.81475        -0.09302
H        -0.59808        -1.03362        -0.00559         0.00755         0.00332        -0.00865         1.56705         2.44925         0.16574        -0.10243
4
step: 3  T=      362.380K  Ek=     0.187365  Ep=     1.496224  E_gap=    13.252849  Err=       0.0000000000000000  time_stamp= 1672955544.3832
 B        -0.00274         0.00672         0.00271        -0.00227         0.00516         0.00241        -0.06630        -3.38507        -0.73748         0.29174
H         1.23814        -0.03496        -0.00931         0.01830        -0.02794        -0.00860        -2.33783         1.12118         0.41956        -0.09516
H        -0.61476         0.99341        -0.01081        -0.00528        -0.03934        -0.00867         1.47702        -1.99075         0.46739        -0.08906
H        -0.59398        -1.03054        -0.00892         0.01129         0.01198        -0.00860         0.75640         1.93263         0.02021        -0.10752
4
step: 4  T=      394.358K  Ek=     0.203899  Ep=     1.487874  E_gap=    13.218158  Err=       0.0000000000000000  time_stamp= 1672955544.7007
 B        -0.00364         0.00867         0.00361        -0.00203         0.00480         0.00232         0.73391         0.99128         1.28444         0.29364
H         1.24368        -0.04515        -0.01244         0.00693        -0.02615        -0.00825        -3.66776        -0.33126        -0.07953        -0.09497
H        -0.61574         0.97628        -0.01392        -0.00044        -0.04475        -0.00835         1.10035        -0.77333         0.56256        -0.08550
H        -0.58887        -1.02413        -0.01236         0.01532         0.01947        -0.00826         1.17630         2.01486        -0.65266        -0.11317
4
step: 5  T=      458.409K  Ek=     0.237016  Ep=     1.464583  E_gap=    13.204740  Err=       0.0000000000000000  time_stamp= 1672955545.0087
 B        -0.00437         0.01055         0.00457        -0.00158         0.00447         0.00223         3.80875        -1.57664         0.13215         0.29606
H         1.24368        -0.05597        -0.01587        -0.00532        -0.02591        -0.00791        -2.55203         0.25402         0.88928        -0.09493
H        -0.61503         0.95768        -0.01690         0.00228        -0.04780        -0.00808         0.77657        -0.48999         0.19251        -0.08345
H        -0.58181        -1.01491        -0.01622         0.02000         0.02573        -0.00794         1.16306         1.53197         0.04665        -0.11768
4
step: 6  T=      515.470K  Ek=     0.266519  Ep=     1.436009  E_gap=    13.207606  Err=       0.0000000000000000  time_stamp= 1672955545.3283
 B        -0.00491         0.01225         0.00540        -0.00087         0.00380         0.00212         1.82292        -2.24803         1.05513         0.29793
H         1.23942        -0.06612        -0.01842        -0.01667        -0.02371        -0.00743        -3.23467         0.79027        -0.92261        -0.09484
H        -0.61371         0.93819        -0.02005         0.00373        -0.04867        -0.00777         0.20491         0.09332         0.24378        -0.08299
H        -0.57309        -1.00343        -0.01943         0.02227         0.03165        -0.00751         0.07239         1.59525         0.69940        -0.12009
4
step: 7  T=      573.251K  Ek=     0.296394  Ep=     1.405441  E_gap=    13.222791  Err=       0.0000000000000000  time_stamp= 1672955545.6433
 B        -0.00506         0.01359         0.00626        -0.00004         0.00305         0.00198         2.25718        -1.70198        -1.27835         0.29901
H         1.23034        -0.07502        -0.02216        -0.02868        -0.02095        -0.00682        -3.12188         0.38705         0.79035        -0.09447
H        -0.61199         0.91879        -0.02303         0.00506        -0.04740        -0.00738         0.63172         0.73618         0.12495        -0.08322
H        -0.56407        -0.98956        -0.02196         0.02407         0.03563        -0.00704         0.57254         0.62732        -0.01216        -0.12131
4
step: 8  T=      611.356K  Ek=     0.316095  Ep=     1.377888  E_gap=    13.245306  Err=       0.0000000000000000  time_stamp= 1672955545.9616
 B        -0.00494         0.01469         0.00698         0.00074         0.00230         0.00163         1.67749        -3.50905        -1.32540         0.30032
H         1.21645        -0.08310        -0.02426        -0.03869        -0.01925        -0.00550        -2.19286        -0.46605         0.29542        -0.09396
H        -0.60950         0.90039        -0.02587         0.00452        -0.04314        -0.00619        -0.31682         1.83233         0.03353        -0.08301
H        -0.55402        -0.97483        -0.02476         0.02620         0.03771        -0.00583        -0.21091         0.73590         0.60903        -0.12334
4
step: 9  T=      650.550K  Ek=     0.336360  Ep=     1.359247  E_gap=    13.276040  Err=       0.0000000000000000  time_stamp= 1672955546.2765
 B        -0.00446         0.01544         0.00756         0.00162         0.00155         0.00122         3.77042         1.56017        -0.53235         0.30308
H         1.19936        -0.09108        -0.02621        -0.04774        -0.01743        -0.00390        -2.51892         1.15586         0.46663        -0.09346
H        -0.60788         0.88461        -0.02830         0.00301        -0.03818        -0.00475        -0.06971         1.23573         1.09945        -0.08205
H        -0.54364        -0.95911        -0.02661         0.02733         0.03893        -0.00445         0.45164         0.32896        -0.14746        -0.12757
4
step: 10  T=      695.348K  Ek=     0.359523  Ep=     1.351136  E_gap=    13.318568  Err=       0.0000000000000000  time_stamp= 1672955546.5889
 B        -0.00363         0.01593         0.00796         0.00257         0.00097         0.00062         1.81626        -1.09137        -1.21552         0.30765
H         1.17824        -0.09740        -0.02746        -0.05640        -0.01559        -0.00161        -1.89960         0.62633         0.57878        -0.09317
H        -0.60682         0.87005        -0.02940         0.00147        -0.03343        -0.00254        -1.02212         1.44154         1.28793        -0.08093
H        -0.53246        -0.94352        -0.02855         0.02742         0.03857        -0.00248        -0.05463        -0.34262         0.29079        -0.13355
4
step: 1  T=      380.209K  Ek=     0.196583  Ep=     1.468533  E_gap=    13.372654  Err=       0.0000000000000000  time_stamp= 1699036389.5176
B        -0.00088         0.00225         0.00077        -0.00229         0.00569         0.00211         0.04225         1.20516         2.36790         0.29127
H         1.21635        -0.01132        -0.00288         0.03632        -0.02932        -0.00753        -2.36762         0.13388         0.29947        -0.09595
H        -0.60659         1.02025        -0.00304        -0.01375        -0.02745        -0.00754         1.01242        -1.77870        -0.70407        -0.09606
H        -0.60028        -1.03303        -0.00236         0.00195        -0.00426        -0.00753         1.90605         1.53814        -0.15719        -0.09927
4
step: 2  T=      364.041K  Ek=     0.188224  Ep=     1.489924  E_gap=    13.308548  Err=       0.0000000000000000  time_stamp= 1699036389.8948
B        -0.00183         0.00455         0.00168        -0.00232         0.00560         0.00243         1.93056         0.82332         0.71381         0.29100
H         1.22903        -0.02301        -0.00577         0.02725        -0.02997        -0.00865        -2.18432         0.20918        -0.11903        -0.09555
H        -0.61135         1.00784        -0.00670        -0.00990        -0.03338        -0.00872         0.86726        -1.25682        -0.81460        -0.09317
H        -0.59807        -1.03361        -0.00559         0.00755         0.00332        -0.00865         1.56695         2.45011         0.16574        -0.10228
4
step: 3  T=      362.301K  Ek=     0.187324  Ep=     1.496206  E_gap=    13.253829  Err=       0.0000000000000000  time_stamp= 1699036390.2579
B        -0.00274         0.00672         0.00271        -0.00227         0.00515         0.00241        -0.06582        -3.38848        -0.73780         0.29160
H         1.23814        -0.03496        -0.00931         0.01830        -0.02794        -0.00860        -2.33833         1.12237         0.41957        -0.09517
H        -0.61476         0.99341        -0.01081        -0.00528        -0.03933        -0.00866         1.47750        -1.98959         0.46769        -0.08931
H        -0.59398        -1.03053        -0.00892         0.01129         0.01199        -0.00860         0.75595         1.93368         0.02023        -0.10713
4
step: 4  T=      394.234K  Ek=     0.203835  Ep=     1.487865  E_gap=    13.218110  Err=       0.0000000000000000  time_stamp= 1699036390.6328
B        -0.00364         0.00867         0.00361        -0.00203         0.00479         0.00232         0.73308         0.99037         1.28448         0.29338
H         1.24368        -0.04515        -0.01244         0.00693        -0.02614        -0.00825        -3.66665        -0.33080        -0.07976        -0.09495
H        -0.61574         0.97628        -0.01392        -0.00043        -0.04475        -0.00835         1.10080        -0.77229         0.56280        -0.08566
H        -0.58887        -1.02413        -0.01236         0.01532         0.01948        -0.00826         1.17557         2.01427        -0.65271        -0.11278
4
step: 5  T=      458.253K  Ek=     0.236935  Ep=     1.464608  E_gap=    13.203289  Err=       0.0000000000000000  time_stamp= 1699036391.0094
B        -0.00437         0.01055         0.00457        -0.00158         0.00447         0.00223         3.80705        -1.57250         0.13276         0.29594
H         1.24368        -0.05596        -0.01586        -0.00532        -0.02590        -0.00791        -2.54961         0.25275         0.88887        -0.09491
H        -0.61503         0.95768        -0.01689         0.00228        -0.04780        -0.00808         0.77634        -0.49020         0.19234        -0.08329
H        -0.58181        -1.01490        -0.01622         0.02000         0.02573        -0.00794         1.16258         1.52931         0.04663        -0.11774
4
step: 6  T=      515.308K  Ek=     0.266435  Ep=     1.435996  E_gap=    13.206325  Err=       0.0000000000000000  time_stamp= 1699036391.4088
B        -0.00491         0.01225         0.00540        -0.00087         0.00380         0.00212         1.82257        -2.24172         1.05565         0.29825
H         1.23942        -0.06611        -0.01842        -0.01666        -0.02371        -0.00743        -3.23342         0.78805        -0.92279        -0.09488
H        -0.61370         0.93820        -0.02005         0.00373        -0.04866        -0.00777         0.20362         0.09167         0.24312        -0.08256
H        -0.57310        -1.00342        -0.01943         0.02226         0.03164        -0.00751         0.07277         1.59282         0.69970        -0.12081
4
step: 7  T=      573.146K  Ek=     0.296339  Ep=     1.405454  E_gap=    13.223517  Err=       0.0000000000000000  time_stamp= 1699036391.8670
B        -0.00506         0.01359         0.00626        -0.00004         0.00305         0.00198         2.25947        -1.69956        -1.27870         0.29971
H         1.23034        -0.07501        -0.02216        -0.02867        -0.02095        -0.00682        -3.12370         0.38579         0.79068        -0.09457
H        -0.61199         0.91879        -0.02303         0.00505        -0.04740        -0.00738         0.63011         0.73439         0.12439        -0.08286
H        -0.56407        -0.98956        -0.02196         0.02407         0.03562        -0.00704         0.57367         0.62795        -0.01157        -0.12228
4
step: 8  T=      611.401K  Ek=     0.316119  Ep=     1.377869  E_gap=    13.247428  Err=       0.0000000000000000  time_stamp= 1699036392.4422
B        -0.00494         0.01469         0.00698         0.00074         0.00230         0.00163         1.68001        -3.51288        -1.32640         0.30083
H         1.21646        -0.08309        -0.02426        -0.03869        -0.01926        -0.00550        -2.19605        -0.46518         0.29619        -0.09406
H        -0.60950         0.90040        -0.02587         0.00451        -0.04315        -0.00619        -0.31708         1.83204         0.03360        -0.08304
H        -0.55402        -0.97484        -0.02476         0.02620         0.03771        -0.00583        -0.20999         0.73914         0.60919        -0.12373
4
step: 9  T=      650.695K  Ek=     0.336435  Ep=     1.359266  E_gap=    13.276774  Err=       0.0000000000000000  time_stamp= 1699036393.1672
B        -0.00446         0.01544         0.00756         0.00162         0.00155         0.00122         3.76925         1.55417        -0.53271         0.30275
H         1.19936        -0.09108        -0.02621        -0.04775        -0.01743        -0.00390        -2.51935         1.15814         0.46708        -0.09344
H        -0.60788         0.88462        -0.02830         0.00301        -0.03818        -0.00475        -0.06771         1.23736         1.10018        -0.08250
H        -0.54365        -0.95911        -0.02661         0.02734         0.03893        -0.00445         0.45123         0.33106        -0.14828        -0.12680
4
step: 10  T=      695.347K  Ek=     0.359522  Ep=     1.351187  E_gap=    13.316584  Err=       0.0000000000000000  time_stamp= 1699036393.7870
B        -0.00363         0.01593         0.00796         0.00257         0.00097         0.00062         1.81098        -1.09380        -1.21444         0.30652
H         1.17824        -0.09740        -0.02746        -0.05640        -0.01559        -0.00161        -1.89589         0.62823         0.57834        -0.09302
H        -0.60682         0.87006        -0.02940         0.00147        -0.03342        -0.00254        -1.01911         1.44367         1.28878        -0.08149
H        -0.53246        -0.94352        -0.02855         0.02742         0.03857        -0.00248        -0.05607        -0.34421         0.28931        -0.13201
