4
step: 1  E_total = -472.210355001  
O        -0.59921        -0.00059        -0.00055
C         0.59630         0.00013         0.00218
H         1.21068         1.03621        -0.00867
H         1.19508        -1.02830        -0.00867
4
step: 2  E_total = -472.211131105  
O        -0.59819        -0.00118        -0.00109
C         0.59456         0.00028         0.00435
H         1.22060         1.03886        -0.01729
H         1.18975        -1.02340        -0.01729
4
step: 3  E_total = -472.213652257  
O        -0.59785        -0.00176        -0.00163
C         0.59397         0.00048         0.00651
H         1.22872         1.03777        -0.02580
H         1.18330        -1.01548        -0.02582
4
step: 4  E_total = -472.214587172  
O        -0.59819        -0.00233        -0.00218
C         0.59451         0.00074         0.00864
H         1.23493         1.03293        -0.03418
H         1.17595        -1.00482        -0.03424
4
step: 5  E_total = -472.214521750  
O        -0.59920        -0.00288        -0.00272
C         0.59617         0.00110         0.01075
H         1.23918         1.02439        -0.04237
H         1.16797        -0.99184        -0.04253
4
step: 6  E_total = -472.212394627  
O        -0.60086        -0.00341        -0.00327
C         0.59890         0.00158         0.01283
H         1.24149         1.01234        -0.05034
H         1.15967        -0.97709        -0.05066
4
step: 7  E_total = -472.212124562  
O        -0.60314        -0.00391        -0.00382
C         0.60258         0.00220         0.01488
H         1.24194         0.99708        -0.05802
H         1.15145        -0.96122        -0.05864
4
step: 8  E_total = -472.214598425  
O        -0.60597        -0.00439        -0.00436
C         0.60711         0.00299         0.01688
H         1.24071         0.97906        -0.06540
H         1.14374        -0.94502        -0.06647
4
step: 9  E_total = -472.217301820  
O        -0.60929        -0.00483        -0.00490
C         0.61231         0.00397         0.01884
H         1.23809         0.95886        -0.07246
H         1.13702        -0.92937        -0.07421
4
step: 10  E_total = -472.217104357  
O        -0.61301        -0.00525        -0.00544
C         0.61800         0.00515         0.02077
H         1.23447         0.93723        -0.07923
H         1.13175        -0.91519        -0.08193
