4
step: 1  E_total = -475.374451579  
O        -0.61329         0.00033         0.00044
C         0.61370         0.00058        -0.00157
H         1.20525         0.93620         0.00633
H         1.21827        -0.94677         0.00681
4
step: 2  E_total = -475.372245179  
O        -0.61633         0.00085         0.00076
C         0.61786         0.00117        -0.00274
H         1.20055         0.93326         0.01214
H         1.22670        -0.95360         0.01467
4
step: 3  E_total = -475.377015218  
O        -0.61905         0.00109         0.00127
C         0.62197         0.00162        -0.00375
H         1.19466         0.93062         0.01761
H         1.23443        -0.95953         0.02215
4
step: 4  E_total = -475.381342150  
O        -0.62168         0.00103         0.00181
C         0.62601         0.00185        -0.00467
H         1.19022         0.92837         0.02170
H         1.24015        -0.96583         0.02928
4
step: 5  E_total = -475.363569063  
O        -0.62428         0.00109         0.00254
C         0.63009         0.00179        -0.00568
H         1.18637         0.92759         0.02461
H         1.24430        -0.97011         0.03627
4
step: 6  E_total = -475.363292981  
O        -0.62690         0.00109         0.00321
C         0.63393         0.00141        -0.00639
H         1.18343         0.92763         0.02751
H         1.24737        -0.97341         0.04170
4
step: 7  E_total = -475.363847203  
O        -0.62914         0.00103         0.00395
C         0.63725         0.00052        -0.00703
H         1.18017         0.92899         0.02999
H         1.24924        -0.97497         0.04749
4
step: 8  E_total = -475.352937404  
O        -0.63110         0.00086         0.00475
C         0.64021        -0.00060        -0.00728
H         1.17868         0.93055         0.03167
H         1.25006        -0.97516         0.05318
4
step: 9  E_total = -475.338154694  
O        -0.63269         0.00060         0.00559
C         0.64291        -0.00226        -0.00717
H         1.17726         0.93343         0.03241
H         1.24863        -0.97333         0.05889
4
step: 10  E_total = -475.335157083  
O        -0.63387         0.00008         0.00649
C         0.64497        -0.00436        -0.00700
H         1.17697         0.93742         0.03202
H         1.24521        -0.97124         0.06515
