4
step: 1  T=      377.922K  Ek=     0.195401  Ep=     1.466852  E_gap=    13.373361  Err=       0.0000000000000000  time_stamp= 1672955540.1613
 B        -0.00094         0.00227         0.00069        -0.00227         0.00561         0.00171         0.38162        -0.30277        -0.05827         0.29122
H         1.21666        -0.01142        -0.00246         0.03684        -0.02839        -0.00612        -2.51033         0.08634         0.01978        -0.09592
H        -0.60622         1.01955        -0.00246        -0.01354        -0.02915        -0.00612         1.04991        -1.58373         0.01913        -0.09604
H        -0.60041        -1.03242        -0.00246         0.00105        -0.00261        -0.00612         1.07880         1.80016         0.01936        -0.09926
4
step: 2  T=      338.372K  Ek=     0.174952  Ep=     1.487116  E_gap=    13.311923  Err=       0.0000000000000000  time_stamp= 1672955540.4787
 B        -0.00182         0.00449         0.00137        -0.00209         0.00545         0.00168         0.64489        -0.58679        -0.11362         0.29109
H         1.22947        -0.02272        -0.00490         0.02681        -0.02791        -0.00601        -2.73265         0.16580         0.03917        -0.09545
H        -0.61083         1.00668        -0.00490        -0.00959        -0.03480        -0.00602         1.01128        -1.36738         0.03669        -0.09319
H        -0.59916        -1.03209        -0.00490         0.00518         0.00426        -0.00601         1.07648         1.78837         0.03776        -0.10245
4
step: 3  T=      328.508K  Ek=     0.169852  Ep=     1.492053  E_gap=    13.261124  Err=       0.0000000000000000  time_stamp= 1672955540.7955
 B        -0.00261         0.00662         0.00203        -0.00181         0.00519         0.00163         0.89652        -0.85557        -0.16579         0.29189
H         1.23810        -0.03375        -0.00727         0.01607        -0.02713        -0.00582        -2.87188         0.23889         0.05825        -0.09490
H        -0.61389         0.99171        -0.00728        -0.00588        -0.03953        -0.00585         0.93165        -1.09912         0.05243        -0.08948
H        -0.59626        -1.02902        -0.00727         0.00924         0.01097        -0.00584         1.04371         1.71580         0.05511        -0.10751
4
step: 4  T=      347.016K  Ek=     0.179421  Ep=     1.482444  E_gap=    13.228474  Err=       0.0000000000000000  time_stamp= 1672955541.1055
 B        -0.00327         0.00864         0.00268        -0.00145         0.00484         0.00156         1.14960        -1.12481        -0.21582         0.29372
H         1.24233        -0.04442        -0.00955         0.00494        -0.02607        -0.00556        -2.94257         0.31138         0.07746        -0.09437
H        -0.61553         0.97506        -0.00958        -0.00254        -0.04312        -0.00562         0.81198        -0.77869         0.06661        -0.08614
H        -0.59177        -1.02332        -0.00957         0.01312         0.01730        -0.00559         0.98099         1.59211         0.07174        -0.11321
4
step: 5  T=      388.666K  Ek=     0.200956  Ep=     1.460626  E_gap=    13.216683  Err=       0.0000000000000000  time_stamp= 1672955541.4130
 B        -0.00376         0.01050         0.00329        -0.00099         0.00439         0.00148         1.40601        -1.40065        -0.26326         0.29591
H         1.24206        -0.05461        -0.01172        -0.00634        -0.02474        -0.00522        -2.94847         0.38715         0.09660        -0.09391
H        -0.61592         0.95722        -0.01177         0.00027        -0.04539        -0.00534         0.65571        -0.40645         0.07913        -0.08423
H        -0.58577        -1.01518        -0.01175         0.01670         0.02306        -0.00529         0.88675         1.41995         0.08753        -0.11777
4
step: 6  T=      445.529K  Ek=     0.230356  Ep=     1.430951  E_gap=    13.221110  Err=       0.0000000000000000  time_stamp= 1672955541.7344
 B        -0.00406         0.01215         0.00386        -0.00044         0.00384         0.00138         1.65495        -1.66760        -0.30551         0.29752
H         1.23727        -0.06421        -0.01373        -0.01750        -0.02311        -0.00482        -2.88115         0.46384         0.11463        -0.09347
H        -0.61531         0.93875        -0.01385         0.00242        -0.04615        -0.00502         0.46772         0.01162         0.08923        -0.08376
H        -0.57841        -1.00486        -0.01380         0.01984         0.02807        -0.00493         0.75848         1.19214         0.10165        -0.12030
4
step: 7  T=      508.000K  Ek=     0.262656  Ep=     1.398344  E_gap=    13.234713  Err=       0.0000000000000000  time_stamp= 1672955542.0479
 B        -0.00412         0.01357         0.00439         0.00019         0.00320         0.00126         1.88106        -1.89452        -0.33967         0.29842
H         1.22806        -0.07310        -0.01557        -0.02824        -0.02120        -0.00435        -2.72961         0.53430         0.13039        -0.09298
H        -0.61398         0.92030        -0.01579         0.00381        -0.04524        -0.00466         0.25359         0.46040         0.09613        -0.08381
H        -0.56989        -0.99272        -0.01569         0.02243         0.03207        -0.00452         0.59495         0.89982         0.11314        -0.12163
4
step: 8  T=      566.011K  Ek=     0.292650  Ep=     1.367984  E_gap=    13.255225  Err=       0.0000000000000000  time_stamp= 1672955542.3637
 B        -0.00391         0.01471         0.00487         0.00089         0.00250         0.00114         2.07165        -2.05398        -0.36535         0.29966
H         1.21467        -0.08117        -0.01721        -0.03823        -0.01904        -0.00383        -2.49005         0.59266         0.14350        -0.09249
H        -0.61227         0.90255        -0.01758         0.00433        -0.04260        -0.00429         0.02080         0.91700         0.10007        -0.08345
H        -0.56046        -0.97921        -0.01741         0.02433         0.03484        -0.00407         0.39760         0.54432         0.12178        -0.12373
4
step: 9  T=      610.626K  Ek=     0.315718  Ep=     1.344479  E_gap=    13.285026  Err=       0.0000000000000000  time_stamp= 1672955542.6816
 B        -0.00341         0.01557         0.00530         0.00166         0.00175         0.00100         2.21157        -2.13137        -0.38440         0.30251
H         1.19747        -0.08833        -0.01864        -0.04714        -0.01669        -0.00326        -2.16384         0.63778         0.15426        -0.09210
H        -0.61052         0.88622        -0.01922         0.00395        -0.03826        -0.00390        -0.21823         1.35453         0.10228        -0.08246
H        -0.55043        -0.96485        -0.01894         0.02542         0.03615        -0.00359         0.17050         0.13906         0.12786        -0.12795
4
step: 10  T=      635.338K  Ek=     0.328495  Ep=     1.331272  E_gap=    13.324182  Err=       0.0000000000000000  time_stamp= 1672955542.9987
 B        -0.00259         0.01612         0.00567         0.00246         0.00099         0.00086         2.27199        -2.11871        -0.39811         0.30699
H         1.17696        -0.09452        -0.01982        -0.05463        -0.01418        -0.00265        -1.74727         0.67154         0.16270        -0.09183
H        -0.60911         0.87195        -0.02070         0.00269        -0.03232        -0.00350        -0.44366         1.74531         0.10396        -0.08138
H        -0.54013        -0.95029        -0.02028         0.02559         0.03584        -0.00309        -0.08105        -0.29814         0.13145        -0.13379
4
step: 1  T=      377.919K  Ek=     0.195399  Ep=     1.466852  E_gap=    13.373437  Err=       0.0000000000000000  time_stamp= 1699036231.0499
B        -0.00094         0.00227         0.00069        -0.00227         0.00561         0.00171         0.38160        -0.30277        -0.05827         0.29133
H         1.21666        -0.01142        -0.00246         0.03684        -0.02839        -0.00612        -2.51040         0.08634         0.01978        -0.09596
H        -0.60622         1.01955        -0.00246        -0.01354        -0.02915        -0.00612         1.04996        -1.58380         0.01913        -0.09608
H        -0.60041        -1.03242        -0.00246         0.00105        -0.00261        -0.00612         1.07884         1.80023         0.01936        -0.09929
4
step: 2  T=      338.346K  Ek=     0.174939  Ep=     1.487137  E_gap=    13.312633  Err=       0.0000000000000000  time_stamp= 1699036231.4028
B        -0.00182         0.00449         0.00137        -0.00209         0.00545         0.00168         0.64547        -0.58884        -0.11382         0.29111
H         1.22947        -0.02272        -0.00490         0.02680        -0.02791        -0.00601        -2.73330         0.16652         0.03922        -0.09548
H        -0.61083         1.00668        -0.00490        -0.00959        -0.03480        -0.00602         1.01144        -1.36688         0.03676        -0.09333
H        -0.59916        -1.03209        -0.00490         0.00518         0.00426        -0.00601         1.07639         1.78919         0.03783        -0.10229
4
step: 3  T=      328.431K  Ek=     0.169812  Ep=     1.492034  E_gap=    13.262068  Err=       0.0000000000000000  time_stamp= 1699036231.7457
B        -0.00261         0.00662         0.00203        -0.00181         0.00519         0.00163         0.89694        -0.85892        -0.16604         0.29176
H         1.23810        -0.03375        -0.00727         0.01607        -0.02712        -0.00582        -2.87235         0.24014         0.05828        -0.09492
H        -0.61389         0.99171        -0.00728        -0.00587        -0.03952        -0.00585         0.93207        -1.09798         0.05254        -0.08972
H        -0.59626        -1.02901        -0.00727         0.00924         0.01097        -0.00584         1.04334         1.71676         0.05521        -0.10712
4
step: 4  T=      346.894K  Ek=     0.179358  Ep=     1.482438  E_gap=    13.228377  Err=       0.0000000000000000  time_stamp= 1699036232.0919
B        -0.00327         0.00864         0.00268        -0.00145         0.00484         0.00156         1.14854        -1.12564        -0.21569         0.29348
H         1.24233        -0.04442        -0.00955         0.00494        -0.02606        -0.00556        -2.94142         0.31183         0.07733        -0.09437
H        -0.61553         0.97506        -0.00958        -0.00254        -0.04312        -0.00562         0.81248        -0.77770         0.06662        -0.08628
H        -0.59177        -1.02331        -0.00957         0.01312         0.01730        -0.00559         0.98040         1.59150         0.07173        -0.11283
4
step: 5  T=      388.521K  Ek=     0.200881  Ep=     1.460645  E_gap=    13.215282  Err=       0.0000000000000000  time_stamp= 1699036232.4361
B        -0.00376         0.01049         0.00329        -0.00099         0.00439         0.00148         1.40403        -1.39664        -0.26273         0.29581
H         1.24205        -0.05460        -0.01172        -0.00633        -0.02473        -0.00522        -2.94605         0.38584         0.09634        -0.09391
H        -0.61592         0.95722        -0.01177         0.00027        -0.04538        -0.00534         0.65569        -0.40668         0.07900        -0.08406
H        -0.58577        -1.01517        -0.01175         0.01669         0.02306        -0.00529         0.88633         1.41748         0.08739        -0.11783
4
step: 6  T=      445.383K  Ek=     0.230281  Ep=     1.430938  E_gap=    13.219932  Err=       0.0000000000000000  time_stamp= 1699036232.7081
B        -0.00406         0.01215         0.00386        -0.00045         0.00384         0.00138         1.65466        -1.66158        -0.30518         0.29785
H         1.23726        -0.06420        -0.01373        -0.01749        -0.02311        -0.00482        -2.88005         0.46152         0.11449        -0.09349
H        -0.61531         0.93876        -0.01385         0.00242        -0.04614        -0.00502         0.46671         0.01003         0.08914        -0.08336
H        -0.57841        -1.00486        -0.01380         0.01984         0.02806        -0.00493         0.75868         1.19003         0.10155        -0.12099
4
step: 7  T=      507.917K  Ek=     0.262614  Ep=     1.398362  E_gap=    13.235403  Err=       0.0000000000000000  time_stamp= 1699036232.8731
B        -0.00412         0.01357         0.00439         0.00019         0.00321         0.00126         1.88387        -1.89223        -0.34012         0.29909
H         1.22806        -0.07309        -0.01557        -0.02823        -0.02121        -0.00435        -2.73162         0.53296         0.13060        -0.09303
H        -0.61398         0.92031        -0.01579         0.00380        -0.04524        -0.00466         0.25202         0.45871         0.09628        -0.08349
H        -0.56990        -0.99272        -0.01569         0.02243         0.03206        -0.00452         0.59574         0.90056         0.11324        -0.12258
4
step: 8  T=      566.066K  Ek=     0.292679  Ep=     1.367963  E_gap=    13.257170  Err=       0.0000000000000000  time_stamp= 1699036233.0382
B        -0.00391         0.01471         0.00487         0.00089         0.00250         0.00114         2.07482        -2.05761        -0.36617         0.30011
H         1.21468        -0.08116        -0.01722        -0.03823        -0.01905        -0.00383        -2.49326         0.59360         0.14391        -0.09252
H        -0.61227         0.90256        -0.01758         0.00432        -0.04261        -0.00429         0.02012         0.91674         0.10031        -0.08349
H        -0.56047        -0.97921        -0.01741         0.02433         0.03483        -0.00407         0.39832         0.54726         0.12195        -0.12410
4
step: 9  T=      610.759K  Ek=     0.315787  Ep=     1.344499  E_gap=    13.285690  Err=       0.0000000000000000  time_stamp= 1699036233.1991
B        -0.00341         0.01557         0.00530         0.00166         0.00175         0.00100         2.21050        -2.13701        -0.38449         0.30215
H         1.19748        -0.08833        -0.01864        -0.04715        -0.01669        -0.00326        -2.16403         0.64026         0.15444        -0.09206
H        -0.61052         0.88622        -0.01922         0.00395        -0.03826        -0.00390        -0.21676         1.35605         0.10224        -0.08288
H        -0.55043        -0.96486        -0.01894         0.02542         0.03615        -0.00359         0.17030         0.14070         0.12782        -0.12721
4
step: 10  T=      635.315K  Ek=     0.328483  Ep=     1.331323  E_gap=    13.322468  Err=       0.0000000000000000  time_stamp= 1699036233.3595
B        -0.00258         0.01612         0.00567         0.00246         0.00099         0.00086         2.26607        -2.12101        -0.39712         0.30590
H         1.17696        -0.09451        -0.01982        -0.05463        -0.01417        -0.00265        -1.74323         0.67353         0.16241        -0.09173
H        -0.60911         0.87196        -0.02070         0.00269        -0.03232        -0.00350        -0.44075         1.74735         0.10353        -0.08188
H        -0.54013        -0.95029        -0.02028         0.02559         0.03585        -0.00309        -0.08209        -0.29987         0.13118        -0.13230
4
step: 1  T=      377.919K  Ek=     0.195399  Ep=     1.466852  E_gap=    13.373437  Err=       0.0000000000000000  time_stamp= 1699036314.3411
B        -0.00094         0.00227         0.00069        -0.00227         0.00561         0.00171         0.38160        -0.30277        -0.05827         0.29133
H         1.21666        -0.01142        -0.00246         0.03684        -0.02839        -0.00612        -2.51040         0.08634         0.01978        -0.09596
H        -0.60622         1.01955        -0.00246        -0.01354        -0.02915        -0.00612         1.04996        -1.58380         0.01913        -0.09608
H        -0.60041        -1.03242        -0.00246         0.00105        -0.00261        -0.00612         1.07884         1.80023         0.01936        -0.09929
4
step: 2  T=      338.346K  Ek=     0.174939  Ep=     1.487137  E_gap=    13.312633  Err=       0.0000000000000000  time_stamp= 1699036314.6617
B        -0.00182         0.00449         0.00137        -0.00209         0.00545         0.00168         0.64547        -0.58884        -0.11382         0.29111
H         1.22947        -0.02272        -0.00490         0.02680        -0.02791        -0.00601        -2.73330         0.16652         0.03922        -0.09548
H        -0.61083         1.00668        -0.00490        -0.00959        -0.03480        -0.00602         1.01144        -1.36688         0.03676        -0.09333
H        -0.59916        -1.03209        -0.00490         0.00518         0.00426        -0.00601         1.07639         1.78919         0.03783        -0.10229
4
step: 3  T=      328.431K  Ek=     0.169812  Ep=     1.492034  E_gap=    13.262068  Err=       0.0000000000000000  time_stamp= 1699036315.0105
B        -0.00261         0.00662         0.00203        -0.00181         0.00519         0.00163         0.89694        -0.85892        -0.16604         0.29176
H         1.23810        -0.03375        -0.00727         0.01607        -0.02712        -0.00582        -2.87235         0.24014         0.05828        -0.09492
H        -0.61389         0.99171        -0.00728        -0.00587        -0.03952        -0.00585         0.93207        -1.09798         0.05254        -0.08972
H        -0.59626        -1.02901        -0.00727         0.00924         0.01097        -0.00584         1.04334         1.71676         0.05521        -0.10712
4
step: 4  T=      346.894K  Ek=     0.179358  Ep=     1.482438  E_gap=    13.228377  Err=       0.0000000000000000  time_stamp= 1699036315.3638
B        -0.00327         0.00864         0.00268        -0.00145         0.00484         0.00156         1.14854        -1.12564        -0.21569         0.29348
H         1.24233        -0.04442        -0.00955         0.00494        -0.02606        -0.00556        -2.94142         0.31183         0.07733        -0.09437
H        -0.61553         0.97506        -0.00958        -0.00254        -0.04312        -0.00562         0.81248        -0.77770         0.06662        -0.08628
H        -0.59177        -1.02331        -0.00957         0.01312         0.01730        -0.00559         0.98040         1.59150         0.07173        -0.11283
4
step: 5  T=      388.521K  Ek=     0.200881  Ep=     1.460645  E_gap=    13.215282  Err=       0.0000000000000000  time_stamp= 1699036315.7250
B        -0.00376         0.01049         0.00329        -0.00099         0.00439         0.00148         1.40403        -1.39664        -0.26273         0.29581
H         1.24205        -0.05460        -0.01172        -0.00633        -0.02473        -0.00522        -2.94605         0.38584         0.09634        -0.09391
H        -0.61592         0.95722        -0.01177         0.00027        -0.04538        -0.00534         0.65569        -0.40668         0.07900        -0.08406
H        -0.58577        -1.01517        -0.01175         0.01669         0.02306        -0.00529         0.88633         1.41748         0.08739        -0.11783
4
step: 6  T=      445.383K  Ek=     0.230281  Ep=     1.430938  E_gap=    13.219932  Err=       0.0000000000000000  time_stamp= 1699036316.0878
B        -0.00406         0.01215         0.00386        -0.00045         0.00384         0.00138         1.65466        -1.66158        -0.30518         0.29785
H         1.23726        -0.06420        -0.01373        -0.01749        -0.02311        -0.00482        -2.88005         0.46152         0.11449        -0.09349
H        -0.61531         0.93876        -0.01385         0.00242        -0.04614        -0.00502         0.46671         0.01003         0.08914        -0.08336
H        -0.57841        -1.00486        -0.01380         0.01984         0.02806        -0.00493         0.75868         1.19003         0.10155        -0.12099
4
step: 7  T=      507.917K  Ek=     0.262614  Ep=     1.398362  E_gap=    13.235403  Err=       0.0000000000000000  time_stamp= 1699036316.4478
B        -0.00412         0.01357         0.00439         0.00019         0.00321         0.00126         1.88387        -1.89223        -0.34012         0.29909
H         1.22806        -0.07309        -0.01557        -0.02823        -0.02121        -0.00435        -2.73162         0.53296         0.13060        -0.09303
H        -0.61398         0.92031        -0.01579         0.00380        -0.04524        -0.00466         0.25202         0.45871         0.09628        -0.08349
H        -0.56990        -0.99272        -0.01569         0.02243         0.03206        -0.00452         0.59574         0.90056         0.11324        -0.12258
4
step: 8  T=      566.066K  Ek=     0.292679  Ep=     1.367963  E_gap=    13.257170  Err=       0.0000000000000000  time_stamp= 1699036316.7941
B        -0.00391         0.01471         0.00487         0.00089         0.00250         0.00114         2.07482        -2.05761        -0.36617         0.30011
H         1.21468        -0.08116        -0.01722        -0.03823        -0.01905        -0.00383        -2.49326         0.59360         0.14391        -0.09252
H        -0.61227         0.90256        -0.01758         0.00432        -0.04261        -0.00429         0.02012         0.91674         0.10031        -0.08349
H        -0.56047        -0.97921        -0.01741         0.02433         0.03483        -0.00407         0.39832         0.54726         0.12195        -0.12410
4
step: 9  T=      610.759K  Ek=     0.315787  Ep=     1.344499  E_gap=    13.285690  Err=       0.0000000000000000  time_stamp= 1699036317.1857
B        -0.00341         0.01557         0.00530         0.00166         0.00175         0.00100         2.21050        -2.13701        -0.38449         0.30215
H         1.19748        -0.08833        -0.01864        -0.04715        -0.01669        -0.00326        -2.16403         0.64026         0.15444        -0.09206
H        -0.61052         0.88622        -0.01922         0.00395        -0.03826        -0.00390        -0.21676         1.35605         0.10224        -0.08288
H        -0.55043        -0.96486        -0.01894         0.02542         0.03615        -0.00359         0.17030         0.14070         0.12782        -0.12721
4
step: 10  T=      635.315K  Ek=     0.328483  Ep=     1.331323  E_gap=    13.322468  Err=       0.0000000000000000  time_stamp= 1699036317.5295
B        -0.00258         0.01612         0.00567         0.00246         0.00099         0.00086         2.26607        -2.12101        -0.39712         0.30590
H         1.17696        -0.09451        -0.01982        -0.05463        -0.01417        -0.00265        -1.74323         0.67353         0.16241        -0.09173
H        -0.60911         0.87196        -0.02070         0.00269        -0.03232        -0.00350        -0.44075         1.74735         0.10353        -0.08188
H        -0.54013        -0.95029        -0.02028         0.02559         0.03585        -0.00309        -0.08209        -0.29987         0.13118        -0.13230
4
step: 1  T=      377.919K  Ek=     0.195399  Ep=     1.466852  E_gap=    13.373437  Err=       0.0000000000000000  time_stamp= 1699036321.3216
B        -0.00094         0.00227         0.00069        -0.00227         0.00561         0.00171         0.38160        -0.30277        -0.05827         0.29133
H         1.21666        -0.01142        -0.00246         0.03684        -0.02839        -0.00612        -2.51040         0.08634         0.01978        -0.09596
H        -0.60622         1.01955        -0.00246        -0.01354        -0.02915        -0.00612         1.04996        -1.58380         0.01913        -0.09608
H        -0.60041        -1.03242        -0.00246         0.00105        -0.00261        -0.00612         1.07884         1.80023         0.01936        -0.09929
4
step: 2  T=      338.346K  Ek=     0.174939  Ep=     1.487137  E_gap=    13.312633  Err=       0.0000000000000000  time_stamp= 1699036321.5647
B        -0.00182         0.00449         0.00137        -0.00209         0.00545         0.00168         0.64547        -0.58884        -0.11382         0.29111
H         1.22947        -0.02272        -0.00490         0.02680        -0.02791        -0.00601        -2.73330         0.16652         0.03922        -0.09548
H        -0.61083         1.00668        -0.00490        -0.00959        -0.03480        -0.00602         1.01144        -1.36688         0.03676        -0.09333
H        -0.59916        -1.03209        -0.00490         0.00518         0.00426        -0.00601         1.07639         1.78919         0.03783        -0.10229
4
step: 3  T=      328.431K  Ek=     0.169812  Ep=     1.492034  E_gap=    13.262068  Err=       0.0000000000000000  time_stamp= 1699036321.8938
B        -0.00261         0.00662         0.00203        -0.00181         0.00519         0.00163         0.89694        -0.85892        -0.16604         0.29176
H         1.23810        -0.03375        -0.00727         0.01607        -0.02712        -0.00582        -2.87235         0.24014         0.05828        -0.09492
H        -0.61389         0.99171        -0.00728        -0.00587        -0.03952        -0.00585         0.93207        -1.09798         0.05254        -0.08972
H        -0.59626        -1.02901        -0.00727         0.00924         0.01097        -0.00584         1.04334         1.71676         0.05521        -0.10712
4
step: 4  T=      346.894K  Ek=     0.179358  Ep=     1.482438  E_gap=    13.228377  Err=       0.0000000000000000  time_stamp= 1699036322.1774
B        -0.00327         0.00864         0.00268        -0.00145         0.00484         0.00156         1.14854        -1.12564        -0.21569         0.29348
H         1.24233        -0.04442        -0.00955         0.00494        -0.02606        -0.00556        -2.94142         0.31183         0.07733        -0.09437
H        -0.61553         0.97506        -0.00958        -0.00254        -0.04312        -0.00562         0.81248        -0.77770         0.06662        -0.08628
H        -0.59177        -1.02331        -0.00957         0.01312         0.01730        -0.00559         0.98040         1.59150         0.07173        -0.11283
4
step: 5  T=      388.521K  Ek=     0.200881  Ep=     1.460645  E_gap=    13.215282  Err=       0.0000000000000000  time_stamp= 1699036322.5250
B        -0.00376         0.01049         0.00329        -0.00099         0.00439         0.00148         1.40403        -1.39664        -0.26273         0.29581
H         1.24205        -0.05460        -0.01172        -0.00633        -0.02473        -0.00522        -2.94605         0.38584         0.09634        -0.09391
H        -0.61592         0.95722        -0.01177         0.00027        -0.04538        -0.00534         0.65569        -0.40668         0.07900        -0.08406
H        -0.58577        -1.01517        -0.01175         0.01669         0.02306        -0.00529         0.88633         1.41748         0.08739        -0.11783
4
step: 6  T=      445.383K  Ek=     0.230281  Ep=     1.430938  E_gap=    13.219932  Err=       0.0000000000000000  time_stamp= 1699036322.7955
B        -0.00406         0.01215         0.00386        -0.00045         0.00384         0.00138         1.65466        -1.66158        -0.30518         0.29785
H         1.23726        -0.06420        -0.01373        -0.01749        -0.02311        -0.00482        -2.88005         0.46152         0.11449        -0.09349
H        -0.61531         0.93876        -0.01385         0.00242        -0.04614        -0.00502         0.46671         0.01003         0.08914        -0.08336
H        -0.57841        -1.00486        -0.01380         0.01984         0.02806        -0.00493         0.75868         1.19003         0.10155        -0.12099
4
step: 7  T=      507.917K  Ek=     0.262614  Ep=     1.398362  E_gap=    13.235403  Err=       0.0000000000000000  time_stamp= 1699036323.1438
B        -0.00412         0.01357         0.00439         0.00019         0.00321         0.00126         1.88387        -1.89223        -0.34012         0.29909
H         1.22806        -0.07309        -0.01557        -0.02823        -0.02121        -0.00435        -2.73162         0.53296         0.13060        -0.09303
H        -0.61398         0.92031        -0.01579         0.00380        -0.04524        -0.00466         0.25202         0.45871         0.09628        -0.08349
H        -0.56990        -0.99272        -0.01569         0.02243         0.03206        -0.00452         0.59574         0.90056         0.11324        -0.12258
4
step: 8  T=      566.066K  Ek=     0.292679  Ep=     1.367963  E_gap=    13.257170  Err=       0.0000000000000000  time_stamp= 1699036323.4207
B        -0.00391         0.01471         0.00487         0.00089         0.00250         0.00114         2.07482        -2.05761        -0.36617         0.30011
H         1.21468        -0.08116        -0.01722        -0.03823        -0.01905        -0.00383        -2.49326         0.59360         0.14391        -0.09252
H        -0.61227         0.90256        -0.01758         0.00432        -0.04261        -0.00429         0.02012         0.91674         0.10031        -0.08349