4
step: 1  T=      280.007K  Ek=     0.144775  Ep=    -1.350262  E_gap=    11.616029  Err=       0.0000000000000000  time_stamp= 1672955540.1586
 O        -0.60726        -0.00008         0.00016         0.00719        -0.00020         0.00041        -1.56945         0.02357        -0.02681        -0.26946
 C         0.60576        -0.00081        -0.00066        -0.00979        -0.00196        -0.00164         1.86414         0.36514         0.06013         0.13959
H         1.21476         0.94784         0.00264         0.01186         0.01884         0.00656        -0.29009        -0.39677        -0.01712         0.06487
H         1.20609        -0.93691         0.00264        -0.00928         0.00775         0.00656        -0.00460         0.00806        -0.01621         0.06501
4
step: 2  T=      240.997K  Ek=     0.124605  Ep=    -1.330547  E_gap=    11.634015  Err=       0.0000000000000000  time_stamp= 1672955540.4763
 O        -0.60446        -0.00016         0.00032         0.00672        -0.00019         0.00040        -2.30509         0.05992        -0.03771        -0.26666
 C         0.60196        -0.00157        -0.00131        -0.00906        -0.00180        -0.00162         2.68023         0.66535         0.09857         0.14092
H         1.21928         0.95507         0.00525         0.01043         0.01685         0.00646        -0.45870        -0.64482        -0.03222         0.06249
H         1.20237        -0.93380         0.00525        -0.00913         0.00761         0.00647         0.08357        -0.08044        -0.02864         0.06325
4
step: 3  T=      192.137K  Ek=     0.099342  Ep=    -1.305328  E_gap=    11.642357  Err=       0.0000000000000000  time_stamp= 1672955540.7928
 O        -0.60188        -0.00024         0.00048         0.00609        -0.00017         0.00039        -2.95168         0.10083        -0.03409        -0.26465
 C         0.59851        -0.00225        -0.00195        -0.00809        -0.00154        -0.00159         3.36425         0.90317         0.11729         0.14495
H         1.22310         0.96132         0.00780         0.00842         0.01401         0.00630        -0.58829        -0.83839        -0.04553         0.05883
H         1.19879        -0.93082         0.00781        -0.00863         0.00714         0.00634         0.17572        -0.16561        -0.03767         0.06087
4
step: 4  T=      140.118K  Ek=     0.072446  Ep=    -1.277651  E_gap=    11.644806  Err=       0.0000000000000000  time_stamp= 1672955541.1032
 O        -0.59959        -0.00030         0.00064         0.00530        -0.00015         0.00039        -3.55332         0.13030        -0.02943        -0.26347
 C         0.59549        -0.00281        -0.00258        -0.00691        -0.00122        -0.00154         3.97928         1.10421         0.13502         0.15020
H         1.22602         0.96628         0.01029         0.00598         0.01052         0.00610        -0.68819        -0.98568        -0.05945         0.05478
H         1.19547        -0.92809         0.01032        -0.00779         0.00635         0.00618         0.26222        -0.24883        -0.04614         0.05849
4
step: 5  T=       91.101K  Ek=     0.047103  Ep=    -1.251810  E_gap=    11.650596  Err=       0.0000000000000000  time_stamp= 1672955541.4098
 O        -0.59764        -0.00035         0.00079         0.00438        -0.00011         0.00037        -4.12598         0.14281        -0.03666        -0.26245
 C         0.59298        -0.00322        -0.00319        -0.00554        -0.00084        -0.00149         4.55419         1.27707         0.16885         0.15397
H         1.22788         0.96973         0.01269         0.00320         0.00654         0.00585        -0.76292        -1.09194        -0.07570         0.05173
H         1.19256        -0.92575         0.01276        -0.00664         0.00524         0.00599         0.33471        -0.32793        -0.05649         0.05675
4
step: 6  T=       51.053K  Ek=     0.026397  Ep=    -1.230928  E_gap=    11.664729  Err=       0.0000000000000000  time_stamp= 1672955541.7318
 O        -0.59609        -0.00039         0.00094         0.00332        -0.00008         0.00036        -4.62286         0.14816        -0.05681        -0.26080
 C         0.59106        -0.00348        -0.00378        -0.00400        -0.00041        -0.00143         5.03923         1.39925         0.21877         0.15431
H         1.22858         0.97151         0.01497         0.00019         0.00224         0.00553        -0.80608        -1.15266        -0.09338         0.05060
H         1.19015        -0.92390         0.01511        -0.00526         0.00386         0.00576         0.38971        -0.39475        -0.06857         0.05590
4
step: 7  T=       25.351K  Ek=     0.013108  Ep=    -1.217638  E_gap=    11.682210  Err=       0.0000000000000000  time_stamp= 1672955542.0454
 O        -0.59498        -0.00041         0.00108         0.00216        -0.00004         0.00035        -4.96937         0.15798        -0.07822        -0.25873
 C         0.58978        -0.00355        -0.00433        -0.00233         0.00005        -0.00135         5.34913         1.44051         0.26755         0.15198
H         1.22804         0.97153         0.01711        -0.00289        -0.00219         0.00514        -0.80738        -1.15868        -0.10944         0.05108
H         1.18835        -0.92266         0.01736        -0.00370         0.00226         0.00547         0.42763        -0.43980        -0.07989         0.05567
4
step: 8  T=       17.411K  Ek=     0.009002  Ep=    -1.213509  E_gap=    11.692883  Err=       0.0000000000000000  time_stamp= 1672955542.3609
 O        -0.59435        -0.00042         0.00122         0.00095         0.00000         0.00033        -5.13241         0.16878        -0.08866        -0.25755
 C         0.58919        -0.00344        -0.00486        -0.00059         0.00050        -0.00126         5.44801         1.39799         0.29853         0.14999
H         1.22626         0.96976         0.01908        -0.00590        -0.00652         0.00469        -0.76442        -1.10671        -0.12140         0.05200
H         1.18720        -0.92210         0.01949        -0.00202         0.00053         0.00514         0.44882        -0.46006        -0.08846         0.05557
4
step: 9  T=       27.685K  Ek=     0.014314  Ep=    -1.218866  E_gap=    11.692455  Err=       0.0000000000000000  time_stamp= 1672955542.6791
 O        -0.59422        -0.00041         0.00134        -0.00029         0.00004         0.00031        -5.13303         0.16633        -0.08637        -0.25819
 C         0.58930        -0.00315        -0.00534         0.00114         0.00094        -0.00117         5.36431         1.29479         0.31051         0.15073
H         1.22332         0.96631         0.02086        -0.00868        -0.01056         0.00421        -0.68349        -1.00117        -0.12928         0.05220
H         1.18673        -0.92224         0.02148        -0.00029        -0.00123         0.00479         0.45220        -0.45995        -0.09486         0.05526
4
step: 10  T=       53.863K  Ek=     0.027849  Ep=    -1.232681  E_gap=    11.686367  Err=       0.0000000000000000  time_stamp= 1672955542.9959
 O        -0.59459        -0.00039         0.00146        -0.00152         0.00007         0.00029        -5.00407         0.14329        -0.08094        -0.26003
 C         0.59011        -0.00269        -0.00579         0.00283         0.00133        -0.00106         5.13857         1.14889         0.31735         0.15378
H         1.21932         0.96132         0.02245        -0.01108        -0.01409         0.00371        -0.57094        -0.84771        -0.13491         0.05151
H         1.18696        -0.92308         0.02332         0.00141        -0.00295         0.00441         0.43645        -0.44447        -0.10150         0.05474
4
step: 1  T=      279.975K  Ek=     0.144759  Ep=    -1.350261  E_gap=    11.615326  Err=       0.0000000000000000  time_stamp= 1699036231.0383
 O        -0.60726        -0.00008         0.00016         0.00719        -0.00020         0.00041        -1.56968         0.02357        -0.02681        -0.26949
 C         0.60576        -0.00081        -0.00066        -0.00979        -0.00196        -0.00164         1.86408         0.36514         0.06013         0.13975
H         1.21476         0.94784         0.00264         0.01186         0.01884         0.00656        -0.28994        -0.39691        -0.01712         0.06480
H         1.20609        -0.93691         0.00264        -0.00928         0.00775         0.00656        -0.00446         0.00820        -0.01621         0.06494
4
step: 2  T=      240.905K  Ek=     0.124557  Ep=    -1.330494  E_gap=    11.634665  Err=       0.0000000000000000  time_stamp= 1699036231.4014
 O        -0.60446        -0.00016         0.00032         0.00672        -0.00019         0.00040        -2.31161         0.05866        -0.03923        -0.26662
 C         0.60196        -0.00157        -0.00131        -0.00906        -0.00180        -0.00162         2.68836         0.66831         0.10069         0.14071
H         1.21928         0.95507         0.00525         0.01042         0.01684         0.00646        -0.45985        -0.64591        -0.03251         0.06259
H         1.20237        -0.93380         0.00525        -0.00913         0.00761         0.00647         0.08310        -0.08105        -0.02895         0.06331
4
step: 3  T=      191.917K  Ek=     0.099229  Ep=    -1.305360  E_gap=    11.644435  Err=       0.0000000000000000  time_stamp= 1699036231.7411
 O        -0.60188        -0.00024         0.00048         0.00608        -0.00017         0.00039        -2.96150         0.09941        -0.03706        -0.26450
 C         0.59851        -0.00224        -0.00195        -0.00809        -0.00154        -0.00159         3.37689         0.90702         0.12134         0.14427
H         1.22310         0.96131         0.00780         0.00841         0.01400         0.00630        -0.59009        -0.83990        -0.04604         0.05916
H         1.19879        -0.93082         0.00781        -0.00863         0.00713         0.00634         0.17470        -0.16654        -0.03824         0.06107
4
step: 4  T=      139.860K  Ek=     0.072313  Ep=    -1.277697  E_gap=    11.646695  Err=       0.0000000000000000  time_stamp= 1699036232.0901
 O        -0.59959        -0.00030         0.00064         0.00530        -0.00015         0.00038        -3.55367         0.13147        -0.03120        -0.26327
 C         0.59549        -0.00280        -0.00258        -0.00690        -0.00122        -0.00154         3.98021         1.10275         0.13724         0.14945
H         1.22601         0.96627         0.01029         0.00596         0.01051         0.00610        -0.68821        -0.98549        -0.05962         0.05513
H         1.19547        -0.92809         0.01032        -0.00780         0.00634         0.00618         0.26168        -0.24872        -0.04642         0.05868
4
step: 5  T=       90.980K  Ek=     0.047040  Ep=    -1.251801  E_gap=    11.649992  Err=       0.0000000000000000  time_stamp= 1699036232.4346
 O        -0.59764        -0.00035         0.00079         0.00437        -0.00011         0.00037        -4.11093         0.14659        -0.03455        -0.26243
 C         0.59299        -0.00322        -0.00319        -0.00554        -0.00084        -0.00149         4.53563         1.26904         0.16564         0.15392
H         1.22787         0.96972         0.01268         0.00319         0.00654         0.00584        -0.76019        -1.08920        -0.07510         0.05176
H         1.19255        -0.92575         0.01275        -0.00665         0.00524         0.00599         0.33550        -0.32642        -0.05599         0.05675
4
step: 6  T=       51.096K  Ek=     0.026419  Ep=    -1.230973  E_gap=    11.661102  Err=       0.0000000000000000  time_stamp= 1699036232.7068
 O        -0.59609        -0.00039         0.00094         0.00332        -0.00008         0.00036        -4.60413         0.15028        -0.05146        -0.26115
 C         0.59106        -0.00347        -0.00377        -0.00400        -0.00041        -0.00143         5.01545         1.39255         0.21134         0.15540
H         1.22856         0.97150         0.01496         0.00020         0.00225         0.00553        -0.80286        -1.14932        -0.09232         0.05010
H         1.19015        -0.92390         0.01510        -0.00526         0.00386         0.00576         0.39153        -0.39351        -0.06756         0.05564
4
step: 7  T=       25.418K  Ek=     0.013142  Ep=    -1.217666  E_gap=    11.678305  Err=       0.0000000000000000  time_stamp= 1699036232.8716
 O        -0.59498        -0.00041         0.00108         0.00217        -0.00004         0.00035        -4.96467         0.15486        -0.07403        -0.25924
 C         0.58979        -0.00355        -0.00433        -0.00234         0.00004        -0.00135         5.34216         1.44359         0.26219         0.15366
H         1.22803         0.97152         0.01710        -0.00288        -0.00217         0.00514        -0.80674        -1.15755        -0.10884         0.05028
H         1.18834        -0.92266         0.01735        -0.00369         0.00226         0.00548         0.42925        -0.44089        -0.07932         0.05530
4
step: 8  T=       17.410K  Ek=     0.009002  Ep=    -1.213564  E_gap=    11.692432  Err=       0.0000000000000000  time_stamp= 1699036233.0370
 O        -0.59436        -0.00042         0.00122         0.00095         0.00000         0.00033        -5.14406         0.16320        -0.08991        -0.25770
 C         0.58919        -0.00344        -0.00486        -0.00060         0.00050        -0.00126         5.46121         1.40802         0.30083         0.15091
H         1.22626         0.96976         0.01908        -0.00589        -0.00651         0.00470        -0.76640        -1.10819        -0.12191         0.05146
H         1.18719        -0.92209         0.01948        -0.00201         0.00053         0.00515         0.44925        -0.46302        -0.08901         0.05534
4
step: 9  T=       27.668K  Ek=     0.014305  Ep=    -1.218859  E_gap=    11.695956  Err=       0.0000000000000000  time_stamp= 1699036233.1982
 O        -0.59422        -0.00041         0.00134        -0.00029         0.00004         0.00031        -5.14551         0.16499        -0.09286        -0.25774
 C         0.58931        -0.00315        -0.00534         0.00114         0.00094        -0.00117         5.37923         1.29958         0.31945         0.14997
H         1.22332         0.96631         0.02086        -0.00867        -0.01055         0.00421        -0.68507        -1.00298        -0.13049         0.05243
H         1.18673        -0.92223         0.02148        -0.00028        -0.00124         0.00479         0.45135        -0.46159        -0.09610         0.05534
4
step: 10  T=       53.860K  Ek=     0.027848  Ep=    -1.232637  E_gap=    11.690140  Err=       0.0000000000000000  time_stamp= 1699036233.3583
 O        -0.59459        -0.00039         0.00146        -0.00152         0.00007         0.00029        -5.00358         0.14873        -0.08742        -0.25943
 C         0.59011        -0.00269        -0.00579         0.00283         0.00133        -0.00106         5.13875         1.14164         0.32531         0.15181
H         1.21932         0.96132         0.02245        -0.01108        -0.01409         0.00370        -0.57007        -0.84802        -0.13566         0.05250
H         1.18697        -0.92308         0.02332         0.00142        -0.00297         0.00441         0.43490        -0.44235        -0.10223         0.05512
4
step: 1  T=      279.975K  Ek=     0.144759  Ep=    -1.350261  E_gap=    11.615326  Err=       0.0000000000000000  time_stamp= 1699036314.3397
 O        -0.60726        -0.00008         0.00016         0.00719        -0.00020         0.00041        -1.56968         0.02357        -0.02681        -0.26949
 C         0.60576        -0.00081        -0.00066        -0.00979        -0.00196        -0.00164         1.86408         0.36514         0.06013         0.13975
H         1.21476         0.94784         0.00264         0.01186         0.01884         0.00656        -0.28994        -0.39691        -0.01712         0.06480
H         1.20609        -0.93691         0.00264        -0.00928         0.00775         0.00656        -0.00446         0.00820        -0.01621         0.06494
4
step: 2  T=      240.905K  Ek=     0.124557  Ep=    -1.330494  E_gap=    11.634665  Err=       0.0000000000000000  time_stamp= 1699036314.6601
 O        -0.60446        -0.00016         0.00032         0.00672        -0.00019         0.00040        -2.31161         0.05866        -0.03923        -0.26662
 C         0.60196        -0.00157        -0.00131        -0.00906        -0.00180        -0.00162         2.68836         0.66831         0.10069         0.14071
H         1.21928         0.95507         0.00525         0.01042         0.01684         0.00646        -0.45985        -0.64591        -0.03251         0.06259
H         1.20237        -0.93380         0.00525        -0.00913         0.00761         0.00647         0.08310        -0.08105        -0.02895         0.06331
4
step: 3  T=      191.917K  Ek=     0.099229  Ep=    -1.305360  E_gap=    11.644435  Err=       0.0000000000000000  time_stamp= 1699036315.0087
 O        -0.60188        -0.00024         0.00048         0.00608        -0.00017         0.00039        -2.96150         0.09941        -0.03706        -0.26450
 C         0.59851        -0.00224        -0.00195        -0.00809        -0.00154        -0.00159         3.37689         0.90702         0.12134         0.14427
H         1.22310         0.96131         0.00780         0.00841         0.01400         0.00630        -0.59009        -0.83990        -0.04604         0.05916
H         1.19879        -0.93082         0.00781        -0.00863         0.00713         0.00634         0.17470        -0.16654        -0.03824         0.06107
4
step: 4  T=      139.860K  Ek=     0.072313  Ep=    -1.277697  E_gap=    11.646695  Err=       0.0000000000000000  time_stamp= 1699036315.3620
 O        -0.59959        -0.00030         0.00064         0.00530        -0.00015         0.00038        -3.55367         0.13147        -0.03120        -0.26327
 C         0.59549        -0.00280        -0.00258        -0.00690        -0.00122        -0.00154         3.98021         1.10275         0.13724         0.14945
H         1.22601         0.96627         0.01029         0.00596         0.01051         0.00610        -0.68821        -0.98549        -0.05962         0.05513
H         1.19547        -0.92809         0.01032        -0.00780         0.00634         0.00618         0.26168        -0.24872        -0.04642         0.05868
4
step: 5  T=       90.980K  Ek=     0.047040  Ep=    -1.251801  E_gap=    11.649992  Err=       0.0000000000000000  time_stamp= 1699036315.7231
 O        -0.59764        -0.00035         0.00079         0.00437        -0.00011         0.00037        -4.11093         0.14659        -0.03455        -0.26243
 C         0.59299        -0.00322        -0.00319        -0.00554        -0.00084        -0.00149         4.53563         1.26904         0.16564         0.15392
H         1.22787         0.96972         0.01268         0.00319         0.00654         0.00584        -0.76019        -1.08920        -0.07510         0.05176
H         1.19255        -0.92575         0.01275        -0.00665         0.00524         0.00599         0.33550        -0.32642        -0.05599         0.05675
4
step: 6  T=       51.096K  Ek=     0.026419  Ep=    -1.230973  E_gap=    11.661102  Err=       0.0000000000000000  time_stamp= 1699036316.0856
 O        -0.59609        -0.00039         0.00094         0.00332        -0.00008         0.00036        -4.60413         0.15028        -0.05146        -0.26115
 C         0.59106        -0.00347        -0.00377        -0.00400        -0.00041        -0.00143         5.01545         1.39255         0.21134         0.15540
H         1.22856         0.97150         0.01496         0.00020         0.00225         0.00553        -0.80286        -1.14932        -0.09232         0.05010
H         1.19015        -0.92390         0.01510        -0.00526         0.00386         0.00576         0.39153        -0.39351        -0.06756         0.05564
4
step: 7  T=       25.418K  Ek=     0.013142  Ep=    -1.217666  E_gap=    11.678305  Err=       0.0000000000000000  time_stamp= 1699036316.4460
 O        -0.59498        -0.00041         0.00108         0.00217        -0.00004         0.00035        -4.96467         0.15486        -0.07403        -0.25924
 C         0.58979        -0.00355        -0.00433        -0.00234         0.00004        -0.00135         5.34216         1.44359         0.26219         0.15366
H         1.22803         0.97152         0.01710        -0.00288        -0.00217         0.00514        -0.80674        -1.15755        -0.10884         0.05028
H         1.18834        -0.92266         0.01735        -0.00369         0.00226         0.00548         0.42925        -0.44089        -0.07932         0.05530
4
step: 8  T=       17.410K  Ek=     0.009002  Ep=    -1.213564  E_gap=    11.692432  Err=       0.0000000000000000  time_stamp= 1699036316.7925
 O        -0.59436        -0.00042         0.00122         0.00095         0.00000         0.00033        -5.14406         0.16320        -0.08991        -0.25770
 C         0.58919        -0.00344        -0.00486        -0.00060         0.00050        -0.00126         5.46121         1.40802         0.30083         0.15091
H         1.22626         0.96976         0.01908        -0.00589        -0.00651         0.00470        -0.76640        -1.10819        -0.12191         0.05146
H         1.18719        -0.92209         0.01948        -0.00201         0.00053         0.00515         0.44925        -0.46302        -0.08901         0.05534
4
step: 9  T=       27.668K  Ek=     0.014305  Ep=    -1.218859  E_gap=    11.695956  Err=       0.0000000000000000  time_stamp= 1699036317.1833
 O        -0.59422        -0.00041         0.00134        -0.00029         0.00004         0.00031        -5.14551         0.16499        -0.09286        -0.25774
 C         0.58931        -0.00315        -0.00534         0.00114         0.00094        -0.00117         5.37923         1.29958         0.31945         0.14997
H         1.22332         0.96631         0.02086        -0.00867        -0.01055         0.00421        -0.68507        -1.00298        -0.13049         0.05243
H         1.18673        -0.92223         0.02148        -0.00028        -0.00124         0.00479         0.45135        -0.46159        -0.09610         0.05534
4
step: 10  T=       53.860K  Ek=     0.027848  Ep=    -1.232637  E_gap=    11.690140  Err=       0.0000000000000000  time_stamp= 1699036317.5282
 O        -0.59459        -0.00039         0.00146        -0.00152         0.00007         0.00029        -5.00358         0.14873        -0.08742        -0.25943
 C         0.59011        -0.00269        -0.00579         0.00283         0.00133        -0.00106         5.13875         1.14164         0.32531         0.15181
H         1.21932         0.96132         0.02245        -0.01108        -0.01409         0.00370        -0.57007        -0.84802        -0.13566         0.05250
H         1.18697        -0.92308         0.02332         0.00142        -0.00297         0.00441         0.43490        -0.44235        -0.10223         0.05512
4
step: 1  T=      279.975K  Ek=     0.144759  Ep=    -1.350261  E_gap=    11.615326  Err=       0.0000000000000000  time_stamp= 1699036321.3194
 O        -0.60726        -0.00008         0.00016         0.00719        -0.00020         0.00041        -1.56968         0.02357        -0.02681        -0.26949
 C         0.60576        -0.00081        -0.00066        -0.00979        -0.00196        -0.00164         1.86408         0.36514         0.06013         0.13975
H         1.21476         0.94784         0.00264         0.01186         0.01884         0.00656        -0.28994        -0.39691        -0.01712         0.06480
H         1.20609        -0.93691         0.00264        -0.00928         0.00775         0.00656        -0.00446         0.00820        -0.01621         0.06494
4
step: 2  T=      240.905K  Ek=     0.124557  Ep=    -1.330494  E_gap=    11.634665  Err=       0.0000000000000000  time_stamp= 1699036321.5629
 O        -0.60446        -0.00016         0.00032         0.00672        -0.00019         0.00040        -2.31161         0.05866        -0.03923        -0.26662
 C         0.60196        -0.00157        -0.00131        -0.00906        -0.00180        -0.00162         2.68836         0.66831         0.10069         0.14071
H         1.21928         0.95507         0.00525         0.01042         0.01684         0.00646        -0.45985        -0.64591        -0.03251         0.06259
H         1.20237        -0.93380         0.00525        -0.00913         0.00761         0.00647         0.08310        -0.08105        -0.02895         0.06331
4
step: 3  T=      191.917K  Ek=     0.099229  Ep=    -1.305360  E_gap=    11.644435  Err=       0.0000000000000000  time_stamp= 1699036321.8905
 O        -0.60188        -0.00024         0.00048         0.00608        -0.00017         0.00039        -2.96150         0.09941        -0.03706        -0.26450
 C         0.59851        -0.00224        -0.00195        -0.00809        -0.00154        -0.00159         3.37689         0.90702         0.12134         0.14427
H         1.22310         0.96131         0.00780         0.00841         0.01400         0.00630        -0.59009        -0.83990        -0.04604         0.05916
H         1.19879        -0.93082         0.00781        -0.00863         0.00713         0.00634         0.17470        -0.16654        -0.03824         0.06107
4
step: 4  T=      139.860K  Ek=     0.072313  Ep=    -1.277697  E_gap=    11.646695  Err=       0.0000000000000000  time_stamp= 1699036322.1761
 O        -0.59959        -0.00030         0.00064         0.00530        -0.00015         0.00038        -3.55367         0.13147        -0.03120        -0.26327
 C         0.59549        -0.00280        -0.00258        -0.00690        -0.00122        -0.00154         3.98021         1.10275         0.13724         0.14945
H         1.22601         0.96627         0.01029         0.00596         0.01051         0.00610        -0.68821        -0.98549        -0.05962         0.05513
H         1.19547        -0.92809         0.01032        -0.00780         0.00634         0.00618         0.26168        -0.24872        -0.04642         0.05868
4
step: 5  T=       90.980K  Ek=     0.047040  Ep=    -1.251801  E_gap=    11.649992  Err=       0.0000000000000000  time_stamp= 1699036322.5220
 O        -0.59764        -0.00035         0.00079         0.00437        -0.00011         0.00037        -4.11093         0.14659        -0.03455        -0.26243
 C         0.59299        -0.00322        -0.00319        -0.00554        -0.00084        -0.00149         4.53563         1.26904         0.16564         0.15392
H         1.22787         0.96972         0.01268         0.00319         0.00654         0.00584        -0.76019        -1.08920        -0.07510         0.05176
H         1.19255        -0.92575         0.01275        -0.00665         0.00524         0.00599         0.33550        -0.32642        -0.05599         0.05675
4
step: 6  T=       51.096K  Ek=     0.026419  Ep=    -1.230973  E_gap=    11.661102  Err=       0.0000000000000000  time_stamp= 1699036322.7909
 O        -0.59609        -0.00039         0.00094         0.00332        -0.00008         0.00036        -4.60413         0.15028        -0.05146        -0.26115
 C         0.59106        -0.00347        -0.00377        -0.00400        -0.00041        -0.00143         5.01545         1.39255         0.21134         0.15540
H         1.22856         0.97150         0.01496         0.00020         0.00225         0.00553        -0.80286        -1.14932        -0.09232         0.05010
H         1.19015        -0.92390         0.01510        -0.00526         0.00386         0.00576         0.39153        -0.39351        -0.06756         0.05564
4
step: 7  T=       25.418K  Ek=     0.013142  Ep=    -1.217666  E_gap=    11.678305  Err=       0.0000000000000000  time_stamp= 1699036323.1418
 O        -0.59498        -0.00041         0.00108         0.00217        -0.00004         0.00035        -4.96467         0.15486        -0.07403        -0.25924
 C         0.58979        -0.00355        -0.00433        -0.00234         0.00004        -0.00135         5.34216         1.44359         0.26219         0.15366
H         1.22803         0.97152         0.01710        -0.00288        -0.00217         0.00514        -0.80674        -1.15755        -0.10884         0.05028
H         1.18834        -0.92266         0.01735        -0.00369         0.00226         0.00548         0.42925        -0.44089        -0.07932         0.05530
4
step: 8  T=       17.410K  Ek=     0.009002  Ep=    -1.213564  E_gap=    11.692432  Err=       0.0000000000000000  time_stamp= 1699036323.4180
 O        -0.59436        -0.00042         0.00122         0.00095         0.00000         0.00033        -5.14406         0.16320        -0.08991        -0.25770
 C         0.58919        -0.00344        -0.00486        -0.00060         0.00050        -0.00126         5.46121         1.40802         0.30083         0.15091