4
step: 1  E_total = -108.923851845  
B        -0.00063         0.00132        -0.00115
H         1.19116         0.00524         0.00297
H        -0.58380         1.02772         0.00344
H        -0.59911        -1.04442         0.00391
4
step: 2  E_total = -108.928697330  
B        -0.00157         0.00221        -0.00219
H         1.17865         0.00968         0.00633
H        -0.56654         1.02319         0.00780
H        -0.59664        -1.05647         0.00692
4
step: 3  E_total = -108.949171018  
B        -0.00222         0.00305        -0.00313
H         1.16337         0.01432         0.00941
H        -0.54929         1.01629         0.01130
H        -0.59231        -1.06562         0.00922
4
step: 4  E_total = -108.956527026  
B        -0.00268         0.00366        -0.00404
H         1.14669         0.01834         0.01241
H        -0.53158         1.00880         0.01441
H        -0.58693        -1.07026         0.01213
4
step: 5  E_total = -108.953559686  
B        -0.00319         0.00378        -0.00494
H         1.12818         0.02156         0.01481
H        -0.51335         0.99976         0.01586
H        -0.58034        -1.07124         0.01521
4
step: 6  E_total = -108.954597912  
B        -0.00374         0.00388        -0.00579
H         1.10797         0.02542         0.01793
H        -0.49612         0.98953         0.01719
H        -0.57136        -1.06881         0.01758
4
step: 7  E_total = -108.941803542  
B        -0.00435         0.00381        -0.00646
H         1.08734         0.02963         0.01919
H        -0.47920         0.98030         0.01897
H        -0.56044        -1.06305         0.01921
4
step: 8  E_total = -108.910128541  
B        -0.00510         0.00361        -0.00698
H         1.06751         0.03337         0.02109
H        -0.46233         0.97121         0.02097
H        -0.54868        -1.05450         0.02061
4
step: 9  E_total = -108.904480836  
B        -0.00613         0.00298        -0.00744
H         1.04903         0.03690         0.02190
H        -0.44598         0.96361         0.02218
H        -0.53598        -1.04327         0.02203
4
step: 10  E_total = -108.925365382  
B        -0.00739         0.00214        -0.00758
H         1.03465         0.04038         0.02255
H        -0.43302         0.95690         0.02351
H        -0.52296        -1.03040         0.02254
