4
step: 1  T=      385.338K  Ek=  0.199235115  Ep=  1.420770276  E_gap=    13.426382  Err=       0.0000000000000000  time_stamp= 1758753725.6389
B        -0.00068         0.00108        -0.00092
H         1.19137         0.00473         0.00297
H        -0.58475         1.02741         0.00330
H        -0.59936        -1.04369         0.00364
4
step: 2  T=      428.736K  Ek=  0.221673491  Ep=  1.401220421  E_gap=    13.415379  Err=       0.0000000000000000  time_stamp= 1758753725.7050
B        -0.00138         0.00212        -0.00197
H         1.17979         0.00914         0.00706
H        -0.56829         1.02311         0.00668
H        -0.59672        -1.05503         0.00734
4
step: 3  T=      474.047K  Ek=  0.245101047  Ep=  1.373094909  E_gap=    13.414862  Err=       0.0000000000000000  time_stamp= 1758753725.7620
B        -0.00205         0.00307        -0.00288
H         1.16495         0.01328         0.01016
H        -0.55072         1.01670         0.01051
H        -0.59227        -1.06285         0.01021
4
step: 4  T=      512.137K  Ek=  0.264795515  Ep=  1.345559914  E_gap=    13.425491  Err=       0.0000000000000000  time_stamp= 1758753725.8150
B        -0.00257         0.00396        -0.00364
H         1.14761         0.01723         0.01323
H        -0.53330         1.00842         0.01316
H        -0.58672        -1.06808         0.01262
4
step: 5  T=      536.419K  Ek=  0.277350324  Ep=  1.320192802  E_gap=    13.449920  Err=       0.0000000000000000  time_stamp= 1758753725.8693
B        -0.00309         0.00463        -0.00429
H         1.12862         0.02103         0.01564
H        -0.51619         0.99874         0.01588
H        -0.57927        -1.06938         0.01448
4
step: 6  T=      540.178K  Ek=  0.279293582  Ep=  1.301992828  E_gap=    13.486280  Err=       0.0000000000000000  time_stamp= 1758753725.9240
B        -0.00344         0.00491        -0.00493
H         1.10820         0.02375         0.01870
H        -0.49996         0.98976         0.01767
H        -0.57133        -1.06619         0.01650
4
step: 7  T=      540.032K  Ek=  0.279217963  Ep=  1.294337406  E_gap=    13.522324  Err=       0.0000000000000000  time_stamp= 1758753725.9779
B        -0.00401         0.00489        -0.00553
H         1.08918         0.02665         0.02082
H        -0.48453         0.98046         0.01995
H        -0.56159        -1.05955         0.01852
4
step: 8  T=      533.278K  Ek=  0.275726017  Ep=  1.299901510  E_gap=    13.555644  Err=       0.0000000000000000  time_stamp= 1758753726.0304
B        -0.00472         0.00460        -0.00600
H         1.07117         0.02945         0.02263
H        -0.46969         0.97117         0.02179
H        -0.55091        -1.04997         0.01990
4
step: 9  T=      508.974K  Ek=  0.263160050  Ep=  1.316113651  E_gap=    13.585604  Err=       0.0000000000000000  time_stamp= 1758753726.0793
B        -0.00545         0.00396        -0.00632
H         1.05434         0.03141         0.02389
H        -0.45657         0.96324         0.02242
H        -0.53932        -1.03712         0.02145
4
step: 10  T=      470.414K  Ek=  0.243222723  Ep=  1.343161319  E_gap=    13.610091  Err=       0.0000000000000000  time_stamp= 1758753726.1318
B        -0.00619         0.00306        -0.00645
H         1.03928         0.03309         0.02448
H        -0.44566         0.95630         0.02319
H        -0.52721        -1.02218         0.02149
