4
step: 1  T=      381.696K  Ek=  0.197352348  Ep=  1.419623170  E_gap=    13.427323  Err=       0.0000000000000000  time_stamp= 1758753724.4845
B        -0.00062         0.00112        -0.00086
H         1.19110         0.00464         0.00306
H        -0.58466         1.02690         0.00306
H        -0.59979        -1.04360         0.00306
4
step: 2  T=      425.184K  Ek=  0.219837285  Ep=  1.396738388  E_gap=    13.420282  Err=       0.0000000000000000  time_stamp= 1758753724.5360
B        -0.00123         0.00220        -0.00170
H         1.17911         0.00921         0.00608
H        -0.56802         1.02135         0.00608
H        -0.59787        -1.05418         0.00608
4
step: 3  T=      480.248K  Ek=  0.248307580  Ep=  1.367714116  E_gap=    13.422287  Err=       0.0000000000000000  time_stamp= 1758753724.6152
B        -0.00185         0.00318        -0.00253
H         1.16439         0.01366         0.00903
H        -0.55040         1.01368         0.00903
H        -0.59419        -1.06150         0.00903
4
step: 4  T=      537.118K  Ek=  0.277711550  Ep=  1.337895068  E_gap=    13.436019  Err=       0.0000000000000000  time_stamp= 1758753724.6675
B        -0.00247         0.00403        -0.00332
H         1.14744         0.01791         0.01188
H        -0.53220         1.00431         0.01189
H        -0.58875        -1.06542         0.01186
4
step: 5  T=      584.595K  Ek=  0.302258793  Ep=  1.313067392  E_gap=    13.461247  Err=       0.0000000000000000  time_stamp= 1758753724.7220
B        -0.00311         0.00468        -0.00408
H         1.12884         0.02190         0.01460
H        -0.51385         0.99375         0.01462
H        -0.58160        -1.06588         0.01455
4
step: 6  T=      612.135K  Ek=  0.316498304  Ep=  1.298646258  E_gap=    13.493357  Err=       0.0000000000000000  time_stamp= 1758753724.7777
B        -0.00379         0.00510        -0.00479
H         1.10930         0.02556         0.01716
H        -0.49582         0.98263         0.01720
H        -0.57284        -1.06293         0.01706
4
step: 7  T=      612.442K  Ek=  0.316656891  Ep=  1.298410808  E_gap=    13.526675  Err=       0.0000000000000000  time_stamp= 1758753724.8317
B        -0.00451         0.00524        -0.00546
H         1.08964         0.02884         0.01956
H        -0.47861         0.97162         0.01962
H        -0.56263        -1.05668         0.01935
4
step: 8  T=      583.813K  Ek=  0.301854812  Ep=  1.313250021  E_gap=    13.557638  Err=       0.0000000000000000  time_stamp= 1758753724.8818
B        -0.00530         0.00506        -0.00606
H         1.07073         0.03169         0.02176
H        -0.46274         0.96146         0.02186
H        -0.55120        -1.04739         0.02139
4
step: 9  T=      531.213K  Ek=  0.274658269  Ep=  1.340654931  E_gap=    13.583427  Err=       0.0000000000000000  time_stamp= 1758753724.9354
B        -0.00615         0.00452        -0.00661
H         1.05350         0.03405         0.02377
H        -0.44870         0.95287         0.02392
H        -0.53881        -1.03542         0.02317
4
step: 10  T=      465.324K  Ek=  0.240590874  Ep=  1.375081884  E_gap=    13.599923  Err=       0.0000000000000000  time_stamp= 1758753724.9890
B        -0.00710         0.00362        -0.00709
H         1.03884         0.03589         0.02559
H        -0.43691         0.94651         0.02579
H        -0.52579        -1.02123         0.02465
4
step: 11  T=      399.629K  Ek=  0.206624325  Ep=  1.409534490  E_gap=    13.603429  Err=       0.0000000000000000  time_stamp= 1758753725.0430
B        -0.00814         0.00236        -0.00751
H         1.02755         0.03721         0.02721
H        -0.42769         0.94290         0.02748
H        -0.51252        -1.00542         0.02584
4
step: 12  T=      346.436K  Ek=  0.179121260  Ep=  1.437480118  E_gap=    13.593964  Err=       0.0000000000000000  time_stamp= 1758753725.0969
B        -0.00928         0.00077        -0.00786
H         1.02028         0.03801         0.02863
H        -0.42129         0.94244         0.02897
H        -0.49943        -0.98868         0.02672
4
step: 13  T=      313.388K  Ek=  0.162034170  Ep=  1.454687387  E_gap=    13.574349  Err=       0.0000000000000000  time_stamp= 1758753725.1493
B        -0.01051        -0.00109        -0.00815
H         1.01744         0.03830         0.02986
H        -0.41778         0.94526         0.03026
H        -0.48699        -0.97184         0.02729
4
step: 14  T=      302.034K  Ek=  0.156163801  Ep=  1.460407524  E_gap=    13.546647  Err=       0.0000000000000000  time_stamp= 1758753725.2017
B        -0.01178        -0.00313        -0.00837
H         1.01920         0.03813         0.03089
H        -0.41715         0.95129         0.03134
H        -0.47571        -0.95579         0.02756
4
step: 15  T=      309.029K  Ek=  0.159780510  Ep=  1.456546454  E_gap=    13.511020  Err=       0.0000000000000000  time_stamp= 1758753725.2543
B        -0.01306        -0.00525        -0.00853
H         1.02542         0.03752         0.03171
H        -0.41924         0.96021         0.03218
H        -0.46611        -0.94145         0.02755
4
step: 16  T=      329.036K  Ek=  0.170124840  Ep=  1.445951794  E_gap=    13.467428  Err=       0.0000000000000000  time_stamp= 1758753725.3067
B        -0.01429        -0.00730        -0.00861
H         1.03569         0.03652         0.03231
H        -0.42380         0.97151         0.03277
H        -0.45865        -0.92971         0.02728
4
step: 17  T=      357.456K  Ek=  0.184819189  Ep=  1.431139523  E_gap=    13.417489  Err=       0.0000000000000000  time_stamp= 1758753725.3607
B        -0.01540        -0.00917        -0.00863
H         1.04938         0.03516         0.03265
H        -0.43051         0.98457         0.03308
H        -0.45373        -0.92134         0.02678
4
step: 18  T=      391.466K  Ek=  0.202403692  Ep=  1.413551629  E_gap=    13.364386  Err=       0.0000000000000000  time_stamp= 1758753725.4143
B        -0.01632        -0.01074        -0.00857
H         1.06572         0.03348         0.03273
H        -0.43897         0.99867         0.03309
H        -0.45166        -0.91691         0.02606
4
step: 19  T=      429.093K  Ek=  0.221858264  Ep=  1.394057029  E_gap=    13.311636  Err=       0.0000000000000000  time_stamp= 1758753725.4659
B        -0.01701        -0.01192        -0.00843
H         1.08383         0.03151         0.03252
H        -0.44879         1.01306         0.03279
H        -0.45256        -0.91674         0.02513
4
step: 20  T=      467.370K  Ek=  0.241648916  Ep=  1.374111794  E_gap=    13.262481  Err=       0.0000000000000000  time_stamp= 1758753725.5168
B        -0.01742        -0.01263        -0.00822
H         1.10281         0.02927         0.03202
H        -0.45956         1.02704         0.03216
H        -0.45643        -0.92086         0.02401
