4
step: 1  T=      377.922K  Ek=     0.195401  Ep=     1.466852  E_gap=    13.373361  Err=       0.0000000000000000  time_stamp= 1672868880.4119
 B        -0.00094         0.00227         0.00069        -0.00227         0.00561         0.00171         0.38162        -0.30277        -0.05827         0.29122
H         1.21666        -0.01142        -0.00246         0.03684        -0.02839        -0.00612        -2.51033         0.08634         0.01978        -0.09592
H        -0.60622         1.01955        -0.00246        -0.01354        -0.02915        -0.00612         1.04991        -1.58373         0.01913        -0.09604
H        -0.60041        -1.03242        -0.00246         0.00105        -0.00261        -0.00612         1.07880         1.80016         0.01936        -0.09926
4
step: 2  T=      338.372K  Ek=     0.174952  Ep=     1.487116  E_gap=    13.311923  Err=       0.0000000000000000  time_stamp= 1672868880.7598
 B        -0.00182         0.00449         0.00137        -0.00209         0.00545         0.00168         0.64489        -0.58679        -0.11362         0.29109
H         1.22947        -0.02272        -0.00490         0.02681        -0.02791        -0.00601        -2.73265         0.16580         0.03917        -0.09545
H        -0.61083         1.00668        -0.00490        -0.00959        -0.03480        -0.00602         1.01128        -1.36738         0.03669        -0.09319
H        -0.59916        -1.03209        -0.00490         0.00518         0.00426        -0.00601         1.07648         1.78837         0.03776        -0.10245
4
step: 3  T=      328.508K  Ek=     0.169852  Ep=     1.492053  E_gap=    13.261124  Err=       0.0000000000000000  time_stamp= 1672868881.0841
 B        -0.00261         0.00662         0.00203        -0.00181         0.00519         0.00163         0.89652        -0.85557        -0.16579         0.29189
H         1.23810        -0.03375        -0.00727         0.01607        -0.02713        -0.00582        -2.87188         0.23889         0.05825        -0.09490
H        -0.61389         0.99171        -0.00728        -0.00588        -0.03953        -0.00585         0.93165        -1.09912         0.05243        -0.08948
H        -0.59626        -1.02902        -0.00727         0.00924         0.01097        -0.00584         1.04371         1.71580         0.05511        -0.10751
4
step: 4  T=      347.016K  Ek=     0.179421  Ep=     1.482444  E_gap=    13.228474  Err=       0.0000000000000000  time_stamp= 1672868881.4071
 B        -0.00327         0.00864         0.00268        -0.00145         0.00484         0.00156         1.14960        -1.12481        -0.21582         0.29372
H         1.24233        -0.04442        -0.00955         0.00494        -0.02607        -0.00556        -2.94257         0.31138         0.07746        -0.09437
H        -0.61553         0.97506        -0.00958        -0.00254        -0.04312        -0.00562         0.81198        -0.77869         0.06661        -0.08614
H        -0.59177        -1.02332        -0.00957         0.01312         0.01730        -0.00559         0.98099         1.59211         0.07174        -0.11321
4
step: 5  T=      388.666K  Ek=     0.200956  Ep=     1.460626  E_gap=    13.216683  Err=       0.0000000000000000  time_stamp= 1672868881.7328
 B        -0.00376         0.01050         0.00329        -0.00099         0.00439         0.00148         1.40601        -1.40065        -0.26326         0.29591
H         1.24206        -0.05461        -0.01172        -0.00634        -0.02474        -0.00522        -2.94847         0.38715         0.09660        -0.09391
H        -0.61592         0.95722        -0.01177         0.00027        -0.04539        -0.00534         0.65571        -0.40645         0.07913        -0.08423
H        -0.58577        -1.01518        -0.01175         0.01670         0.02306        -0.00529         0.88675         1.41995         0.08753        -0.11777
4
step: 6  T=      445.529K  Ek=     0.230356  Ep=     1.430951  E_gap=    13.221110  Err=       0.0000000000000000  time_stamp= 1672868882.0621
 B        -0.00406         0.01215         0.00386        -0.00044         0.00384         0.00138         1.65495        -1.66760        -0.30551         0.29752
H         1.23727        -0.06421        -0.01373        -0.01750        -0.02311        -0.00482        -2.88115         0.46384         0.11463        -0.09347
H        -0.61531         0.93875        -0.01385         0.00242        -0.04615        -0.00502         0.46772         0.01162         0.08923        -0.08376
H        -0.57841        -1.00486        -0.01380         0.01984         0.02807        -0.00493         0.75848         1.19214         0.10165        -0.12030
4
step: 7  T=      508.000K  Ek=     0.262656  Ep=     1.398344  E_gap=    13.234713  Err=       0.0000000000000000  time_stamp= 1672868882.3929
 B        -0.00412         0.01357         0.00439         0.00019         0.00320         0.00126         1.88106        -1.89452        -0.33967         0.29842
H         1.22806        -0.07310        -0.01557        -0.02824        -0.02120        -0.00435        -2.72961         0.53430         0.13039        -0.09298
H        -0.61398         0.92030        -0.01579         0.00381        -0.04524        -0.00466         0.25359         0.46040         0.09613        -0.08381
H        -0.56989        -0.99272        -0.01569         0.02243         0.03207        -0.00452         0.59495         0.89982         0.11314        -0.12163
4
step: 8  T=      566.011K  Ek=     0.292650  Ep=     1.367984  E_gap=    13.255225  Err=       0.0000000000000000  time_stamp= 1672868882.7176
 B        -0.00391         0.01471         0.00487         0.00089         0.00250         0.00114         2.07165        -2.05398        -0.36535         0.29966
H         1.21467        -0.08117        -0.01721        -0.03823        -0.01904        -0.00383        -2.49005         0.59266         0.14350        -0.09249
H        -0.61227         0.90255        -0.01758         0.00433        -0.04260        -0.00429         0.02080         0.91700         0.10007        -0.08345
H        -0.56046        -0.97921        -0.01741         0.02433         0.03484        -0.00407         0.39760         0.54432         0.12178        -0.12373
4
step: 9  T=      610.626K  Ek=     0.315718  Ep=     1.344479  E_gap=    13.285026  Err=       0.0000000000000000  time_stamp= 1672868883.0359
 B        -0.00341         0.01557         0.00530         0.00166         0.00175         0.00100         2.21157        -2.13137        -0.38440         0.30251
H         1.19747        -0.08833        -0.01864        -0.04714        -0.01669        -0.00326        -2.16384         0.63778         0.15426        -0.09210
H        -0.61052         0.88622        -0.01922         0.00395        -0.03826        -0.00390        -0.21823         1.35453         0.10228        -0.08246
H        -0.55043        -0.96485        -0.01894         0.02542         0.03615        -0.00359         0.17050         0.13906         0.12786        -0.12795
4
step: 10  T=      635.338K  Ek=     0.328495  Ep=     1.331272  E_gap=    13.324182  Err=       0.0000000000000000  time_stamp= 1672868883.3564
 B        -0.00259         0.01612         0.00567         0.00246         0.00099         0.00086         2.27199        -2.11871        -0.39811         0.30699
H         1.17696        -0.09452        -0.01982        -0.05463        -0.01418        -0.00265        -1.74727         0.67154         0.16270        -0.09183
H        -0.60911         0.87195        -0.02070         0.00269        -0.03232        -0.00350        -0.44366         1.74531         0.10396        -0.08138
H        -0.54013        -0.95029        -0.02028         0.02559         0.03584        -0.00309        -0.08105        -0.29814         0.13145        -0.13379
