4
step: 1  E_total = -109.032933861  
B        -0.00046         0.00084        -0.00064
H         1.19292         0.00347         0.00229
H        -0.58832         1.02734         0.00229
H        -0.59964        -1.03985         0.00229
4
step: 2  E_total = -109.033185408  
B        -0.00092         0.00165        -0.00127
H         1.18268         0.00690         0.00455
H        -0.57525         1.02219         0.00455
H        -0.59761        -1.04677         0.00455
4
step: 3  E_total = -109.033553944  
B        -0.00137         0.00238        -0.00189
H         1.16962         0.01023         0.00676
H        -0.56109         1.01482         0.00676
H        -0.59387        -1.05061         0.00676
4
step: 4  E_total = -109.033996393  
B        -0.00182         0.00301        -0.00249
H         1.15416         0.01342         0.00889
H        -0.54615         1.00560         0.00889
H        -0.58847        -1.05132         0.00888
4
step: 5  E_total = -109.034449774  
B        -0.00228         0.00349        -0.00305
H         1.13684         0.01642         0.01091
H        -0.53084         0.99500         0.01093
H        -0.58150        -1.04891         0.01089
4
step: 6  E_total = -109.034834611  
B        -0.00277         0.00380        -0.00358
H         1.11832         0.01919         0.01282
H        -0.51556         0.98359         0.01284
H        -0.57309        -1.04352         0.01277
4
step: 7  E_total = -109.035066702  
B        -0.00328         0.00389        -0.00407
H         1.09936         0.02168         0.01459
H        -0.50079         0.97199         0.01463
H        -0.56344        -1.03536         0.01448
4
step: 8  E_total = -109.035078705  
B        -0.00383         0.00373        -0.00452
H         1.08080         0.02384         0.01620
H        -0.48698         0.96089         0.01627
H        -0.55279        -1.02477         0.01601
4
step: 9  E_total = -109.034847060  
B        -0.00443         0.00331        -0.00492
H         1.06354         0.02566         0.01766
H        -0.47463         0.95100         0.01776
H        -0.54145        -1.01218         0.01734
4
step: 10  E_total = -109.034412296  
B        -0.00509         0.00261        -0.00527
H         1.04847         0.02709         0.01896
H        -0.46415         0.94298         0.01910
H        -0.52977        -0.99811         0.01847
