4
step: 1  E_total = -108.921391814  
B        -0.00062         0.00137        -0.00125
H         1.19136         0.00538         0.00286
H        -0.58382         1.02810         0.00352
H        -0.59882        -1.04438         0.00418
4
step: 2  E_total = -108.928901780  
B        -0.00167         0.00215        -0.00234
H         1.17884         0.00963         0.00627
H        -0.56670         1.02403         0.00835
H        -0.59611        -1.05664         0.00710
4
step: 3  E_total = -108.957148761  
B        -0.00232         0.00291        -0.00331
H         1.16353         0.01422         0.00932
H        -0.55000         1.01749         0.01199
H        -0.59152        -1.06616         0.00905
4
step: 4  E_total = -108.968606507  
B        -0.00270         0.00340        -0.00425
H         1.14715         0.01803         0.01229
H        -0.53286         1.01080         0.01511
H        -0.58617        -1.07073         0.01191
4
step: 5  E_total = -108.964208633  
B        -0.00313         0.00328        -0.00518
H         1.12887         0.02080         0.01447
H        -0.51504         1.00237         0.01595
H        -0.57982        -1.07159         0.01506
4
step: 6  E_total = -108.965956406  
B        -0.00362         0.00324        -0.00606
H         1.10852         0.02461         0.01774
H        -0.49845         0.99245         0.01668
H        -0.57077        -1.06909         0.01730
4
step: 7  E_total = -108.949491249  
B        -0.00417         0.00307        -0.00671
H         1.08760         0.02909         0.01845
H        -0.48189         0.98386         0.01812
H        -0.55957        -1.06328         0.01858
4
step: 8  E_total = -108.904884400  
B        -0.00489         0.00288        -0.00718
H         1.06747         0.03308         0.02016
H        -0.46480         0.97505         0.01996
H        -0.54771        -1.05486         0.01964
4
step: 9  E_total = -108.897648784  
B        -0.00597         0.00224        -0.00758
H         1.04848         0.03700         0.02042
H        -0.44763         0.96764         0.02076
H        -0.53491        -1.04383         0.02087
4
step: 10  E_total = -108.927647630  
B        -0.00735         0.00145        -0.00757
H         1.03415         0.04106         0.02053
H        -0.43425         0.96051         0.02182
H        -0.52193        -1.03147         0.02093
