4
step: 1  E_total = -475.478442738  
O        -0.61246         0.00021         0.00030
C         0.61258         0.00036        -0.00122
H         1.20643         0.93734         0.00485
H         1.21581        -0.94510         0.00485
4
step: 2  E_total = -475.478384370  
O        -0.61474         0.00043         0.00060
C         0.61541         0.00069        -0.00242
H         1.20311         0.93474         0.00966
H         1.22148        -0.94977         0.00966
4
step: 3  E_total = -475.478289073  
O        -0.61697         0.00063         0.00089
C         0.61821         0.00095        -0.00359
H         1.19999         0.93241         0.01437
H         1.22662        -0.95377         0.01436
4
step: 4  E_total = -475.478173610  
O        -0.61910         0.00083         0.00117
C         0.62090         0.00111        -0.00473
H         1.19723         0.93054         0.01895
H         1.23106        -0.95690         0.01890
4
step: 5  E_total = -475.478057217  
O        -0.62108         0.00101         0.00143
C         0.62343         0.00115        -0.00582
H         1.19497         0.92932         0.02335
H         1.23467        -0.95899         0.02324
4
step: 6  E_total = -475.477958223  
O        -0.62286         0.00117         0.00169
C         0.62572         0.00104        -0.00685
H         1.19331         0.92887         0.02754
H         1.23735        -0.95993         0.02732
4
step: 7  E_total = -475.477890619  
O        -0.62440         0.00132         0.00192
C         0.62771         0.00079        -0.00781
H         1.19232         0.92929         0.03148
H         1.23907        -0.95969         0.03108
4
step: 8  E_total = -475.477861399  
O        -0.62568         0.00146         0.00213
C         0.62937         0.00038        -0.00868
H         1.19203         0.93058         0.03514
H         1.23981        -0.95826         0.03450
4
step: 9  E_total = -475.477869458  
O        -0.62665         0.00157         0.00232
C         0.63065        -0.00016        -0.00947
H         1.19243         0.93273         0.03849
H         1.23960        -0.95570         0.03752
4
step: 10  E_total = -475.477906409  
O        -0.62729         0.00166         0.00248
C         0.63152        -0.00082        -0.01016
H         1.19346         0.93563         0.04149
H         1.23849        -0.95214         0.04013
