4
step: 1  E_total = -108.929533292  
B        -0.00066         0.00119        -0.00091
H         1.19068         0.00491         0.00324
H        -0.58381         1.02680         0.00324
H        -0.59983        -1.04448         0.00324
4
step: 2  E_total = -108.929966649  
B        -0.00131         0.00233        -0.00180
H         1.17827         0.00975         0.00644
H        -0.56632         1.02116         0.00644
H        -0.59794        -1.05592         0.00644
4
step: 3  E_total = -108.930391079  
B        -0.00196         0.00337        -0.00267
H         1.16317         0.01446         0.00956
H        -0.54789         1.01342         0.00956
H        -0.59427        -1.06405         0.00956
4
step: 4  E_total = -108.930680435  
B        -0.00262         0.00427        -0.00352
H         1.14587         0.01896         0.01258
H        -0.52893         1.00401         0.01259
H        -0.58882        -1.06873         0.01256
4
step: 5  E_total = -108.930987410  
B        -0.00331         0.00496        -0.00432
H         1.12697         0.02319         0.01546
H        -0.50987         0.99347         0.01548
H        -0.58162        -1.06987         0.01541
4
step: 6  E_total = -108.931227320  
B        -0.00403         0.00541        -0.00508
H         1.10722         0.02707         0.01818
H        -0.49122         0.98244         0.01821
H        -0.57280        -1.06749         0.01806
4
step: 7  E_total = -108.931403372  
B        -0.00480         0.00555        -0.00578
H         1.08742         0.03054         0.02071
H        -0.47349         0.97162         0.02078
H        -0.56250        -1.06171         0.02049
4
step: 8  E_total = -108.931341431  
B        -0.00563         0.00536        -0.00642
H         1.06848         0.03354         0.02305
H        -0.45721         0.96173         0.02316
H        -0.55094        -1.05276         0.02265
4
step: 9  E_total = -108.930936742  
B        -0.00654         0.00480        -0.00700
H         1.05132         0.03603         0.02519
H        -0.44285         0.95351         0.02535
H        -0.53838        -1.04099         0.02452
4
step: 10  E_total = -108.930370351  
B        -0.00754         0.00385        -0.00751
H         1.03683         0.03798         0.02712
H        -0.43082         0.94761         0.02735
H        -0.52513        -1.02684         0.02609
