4
step: 1  T=      280.007K  Ek=     0.144775  Ep=    -1.350262  E_gap=    11.616029  Err=       0.0005869352103797  time_stamp= 1672955578.6216
 O        -0.60726        -0.00008         0.00016         0.00719        -0.00020         0.00041        -1.56945         0.02357        -0.02681        -0.26946
 C         0.60576        -0.00081        -0.00066        -0.00979        -0.00196        -0.00164         1.86414         0.36514         0.06013         0.13959
H         1.21476         0.94784         0.00264         0.01186         0.01884         0.00656        -0.29009        -0.39677        -0.01712         0.06487
H         1.20609        -0.93691         0.00264        -0.00928         0.00775         0.00656        -0.00460         0.00806        -0.01621         0.06501
4
step: 2  T=      241.130K  Ek=     0.124674  Ep=    -1.330652  E_gap=    11.631565  Err=       0.0006381867052963  time_stamp= 1672955578.9658
 O        -0.60446        -0.00016         0.00032         0.00672        -0.00019         0.00040        -2.29110         0.06137        -0.03343        -0.26688
 C         0.60196        -0.00157        -0.00131        -0.00906        -0.00180        -0.00162         2.66226         0.66074         0.09272         0.14182
H         1.21928         0.95507         0.00525         0.01043         0.01685         0.00646        -0.45623        -0.64236        -0.03147         0.06205
H         1.20237        -0.93380         0.00525        -0.00912         0.00761         0.00647         0.08508        -0.07975        -0.02782         0.06301
4
step: 3  T=      192.533K  Ek=     0.099547  Ep=    -1.305245  E_gap=    11.638118  Err=       0.0004040093699051  time_stamp= 1672955579.2904
 O        -0.60188        -0.00024         0.00048         0.00609        -0.00017         0.00039        -2.93255         0.10165        -0.02713        -0.26505
 C         0.59851        -0.00225        -0.00196        -0.00810        -0.00155        -0.00159         3.33943         0.89848         0.10801         0.14667
H         1.22310         0.96132         0.00781         0.00844         0.01402         0.00631        -0.58504        -0.83501        -0.04448         0.05796
H         1.19879        -0.93082         0.00781        -0.00862         0.00714         0.00635         0.17816        -0.16512        -0.03640         0.06043
4
step: 4  T=      140.559K  Ek=     0.072674  Ep=    -1.277607  E_gap=    11.643409  Err=       0.0004547447948214  time_stamp= 1672955579.6146
 O        -0.59958        -0.00030         0.00064         0.00531        -0.00015         0.00039        -3.55701         0.12744        -0.02819        -0.26365
 C         0.59548        -0.00281        -0.00258        -0.00692        -0.00122        -0.00155         3.98336         1.10890         0.13378         0.15108
H         1.22603         0.96629         0.01030         0.00600         0.01054         0.00612        -0.68900        -0.98636        -0.05961         0.05430
H         1.19548        -0.92809         0.01033        -0.00777         0.00635         0.00619         0.26266        -0.24998        -0.04598         0.05827
4
step: 5  T=       91.237K  Ek=     0.047173  Ep=    -1.251874  E_gap=    11.655586  Err=       0.0005259025187248  time_stamp= 1672955579.9376
 O        -0.59763        -0.00035         0.00079         0.00438        -0.00011         0.00038        -4.16005         0.13871        -0.04594        -0.26200
 C         0.59297        -0.00322        -0.00319        -0.00555        -0.00084        -0.00149         4.59748         1.28927         0.18172         0.15232
H         1.22790         0.96975         0.01270         0.00321         0.00655         0.00586        -0.76880        -1.09825        -0.07765         0.05253
H         1.19257        -0.92574         0.01277        -0.00664         0.00524         0.00600         0.33138        -0.32973        -0.05814         0.05715
4
step: 6  T=       50.892K  Ek=     0.026313  Ep=    -1.230833  E_gap=    11.673415  Err=       0.0003834660637488  time_stamp= 1672955580.2609
 O        -0.59608        -0.00039         0.00094         0.00332        -0.00008         0.00036        -4.65662         0.14931        -0.06917        -0.25987
 C         0.59104        -0.00348        -0.00378        -0.00399        -0.00041        -0.00143         5.08353         1.40427         0.23514         0.15066
H         1.22860         0.97153         0.01498         0.00018         0.00222         0.00552        -0.81170        -1.15941        -0.09549         0.05244
H         1.19017        -0.92390         0.01512        -0.00527         0.00385         0.00575         0.38479        -0.39417        -0.07047         0.05677
4
step: 7  T=       25.215K  Ek=     0.013037  Ep=    -1.217585  E_gap=    11.686496  Err=       0.0003933885524484  time_stamp= 1672955580.5847
 O        -0.59498        -0.00041         0.00108         0.00216        -0.00004         0.00035        -4.96681         0.16524        -0.07971        -0.25819
 C         0.58977        -0.00355        -0.00434        -0.00231         0.00005        -0.00135         5.34841         1.43009         0.26879         0.14946
H         1.22805         0.97153         0.01712        -0.00292        -0.00222         0.00513        -0.80712        -1.15923        -0.10939         0.05244
H         1.18836        -0.92266         0.01737        -0.00371         0.00226         0.00546         0.42551        -0.43610        -0.07970         0.05629
4
step: 8  T=       17.428K  Ek=     0.009011  Ep=    -1.213532  E_gap=    11.687813  Err=       0.0004301015875118  time_stamp= 1672955580.9108
 O        -0.59435        -0.00042         0.00122         0.00094         0.00000         0.00033        -5.09808         0.17363        -0.07520        -0.25811
 C         0.58919        -0.00344        -0.00486        -0.00059         0.00050        -0.00126         5.40601         1.38462         0.28025         0.15140
H         1.22626         0.96976         0.01908        -0.00592        -0.00654         0.00469        -0.75949        -1.10093        -0.11899         0.05139
H         1.18720        -0.92209         0.01949        -0.00203         0.00055         0.00514         0.45156        -0.45732        -0.08606         0.05532
4
step: 9  T=       27.687K  Ek=     0.014315  Ep=    -1.218901  E_gap=    11.682761  Err=       0.0002748762871501  time_stamp= 1672955581.2492
 O        -0.59422        -0.00041         0.00134        -0.00029         0.00004         0.00031        -5.10742         0.16105        -0.07098        -0.25939
 C         0.58930        -0.00315        -0.00534         0.00114         0.00093        -0.00117         5.33037         1.29717         0.29092         0.15527
H         1.22331         0.96630         0.02087        -0.00868        -0.01055         0.00422        -0.68015        -0.99560        -0.12703         0.04988
H         1.18673        -0.92222         0.02148        -0.00029        -0.00121         0.00480         0.45720        -0.46261        -0.09291         0.05424
4
step: 10  T=       53.794K  Ek=     0.027814  Ep=    -1.232642  E_gap=    11.681946  Err=       0.0005669562048253  time_stamp= 1672955581.5730
 O        -0.59459        -0.00039         0.00146        -0.00151         0.00008         0.00029        -5.01501         0.13248        -0.08103        -0.26059
 C         0.59010        -0.00269        -0.00579         0.00282         0.00133        -0.00107         5.14848         1.16629         0.31887         0.15715
H         1.21932         0.96131         0.02246        -0.01108        -0.01408         0.00372        -0.57240        -0.84807        -0.13530         0.04963
H         1.18697        -0.92306         0.02333         0.00142        -0.00296         0.00443         0.43894        -0.45070        -0.10254         0.05381
4
step: 1  T=      279.975K  Ek=     0.144759  Ep=    -1.350261  E_gap=    11.615326  Err=       0.0005726717790031  time_stamp= 1699036461.7734
 O        -0.60726        -0.00008         0.00016         0.00719        -0.00020         0.00041        -1.56968         0.02357        -0.02681        -0.26949
 C         0.60576        -0.00081        -0.00066        -0.00979        -0.00196        -0.00164         1.86408         0.36514         0.06013         0.13975
H         1.21476         0.94784         0.00264         0.01186         0.01884         0.00656        -0.28994        -0.39691        -0.01712         0.06480
H         1.20609        -0.93691         0.00264        -0.00928         0.00775         0.00656        -0.00446         0.00820        -0.01621         0.06494
4
step: 2  T=      241.103K  Ek=     0.124660  Ep=    -1.330656  E_gap=    11.631971  Err=       0.0004644786710331  time_stamp= 1699036462.2636
 O        -0.60446        -0.00016         0.00032         0.00672        -0.00019         0.00040        -2.29080         0.06137        -0.03343        -0.26686
 C         0.60196        -0.00157        -0.00131        -0.00906        -0.00180        -0.00162         2.66188         0.66075         0.09272         0.14177
H         1.21928         0.95507         0.00525         0.01043         0.01685         0.00646        -0.45620        -0.64223        -0.03147         0.06207
H         1.20237        -0.93380         0.00525        -0.00912         0.00761         0.00647         0.08512        -0.07990        -0.02782         0.06303
4
step: 3  T=      192.514K  Ek=     0.099537  Ep=    -1.305247  E_gap=    11.638737  Err=       0.0003782872631765  time_stamp= 1699036462.9124
 O        -0.60188        -0.00024         0.00048         0.00609        -0.00017         0.00039        -2.93217         0.10164        -0.02713        -0.26502
 C         0.59851        -0.00225        -0.00196        -0.00810        -0.00155        -0.00159         3.33924         0.89852         0.10801         0.14649
H         1.22310         0.96132         0.00781         0.00844         0.01402         0.00631        -0.58514        -0.83477        -0.04448         0.05803
H         1.19879        -0.93082         0.00781        -0.00862         0.00714         0.00635         0.17807        -0.16539        -0.03640         0.06050
4
step: 4  T=      140.544K  Ek=     0.072667  Ep=    -1.277618  E_gap=    11.643391  Err=       0.0004349701729206  time_stamp= 1699036463.6946
 O        -0.59958        -0.00030         0.00064         0.00531        -0.00015         0.00039        -3.55696         0.12744        -0.02818        -0.26367
 C         0.59548        -0.00281        -0.00258        -0.00692        -0.00122        -0.00155         3.98352         1.10892         0.13377         0.15101
H         1.22603         0.96629         0.01030         0.00600         0.01054         0.00612        -0.68911        -0.98628        -0.05961         0.05435
H         1.19548        -0.92809         0.01033        -0.00777         0.00635         0.00619         0.26255        -0.25008        -0.04598         0.05831
4
step: 5  T=       91.225K  Ek=     0.047167  Ep=    -1.251883  E_gap=    11.655156  Err=       0.0005024078903734  time_stamp= 1699036464.3185
 O        -0.59763        -0.00035         0.00079         0.00438        -0.00011         0.00038        -4.16017         0.13872        -0.04593        -0.26203
 C         0.59297        -0.00322        -0.00319        -0.00554        -0.00084        -0.00149         4.59747         1.28926         0.18172         0.15242
H         1.22790         0.96975         0.01270         0.00320         0.00655         0.00586        -0.76874        -1.09832        -0.07765         0.05250
H         1.19257        -0.92574         0.01277        -0.00664         0.00524         0.00600         0.33145        -0.32966        -0.05814         0.05711
4
step: 6  T=       50.885K  Ek=     0.026309  Ep=    -1.230846  E_gap=    11.673233  Err=       0.0003639894100879  time_stamp= 1699036464.8341
 O        -0.59608        -0.00039         0.00094         0.00332        -0.00008         0.00036        -4.65637         0.14932        -0.06918        -0.25987
 C         0.59104        -0.00348        -0.00378        -0.00399        -0.00041        -0.00143         5.08281         1.40426         0.23514         0.15080
H         1.22859         0.97153         0.01498         0.00018         0.00222         0.00552        -0.81147        -1.15943        -0.09549         0.05237
H         1.19017        -0.92390         0.01512        -0.00527         0.00385         0.00575         0.38503        -0.39415        -0.07047         0.05669
4
step: 7  T=       25.212K  Ek=     0.013036  Ep=    -1.217602  E_gap=    11.686691  Err=       0.0003930132987233  time_stamp= 1699036465.2801
 O        -0.59498        -0.00041         0.00108         0.00215        -0.00004         0.00035        -4.96617         0.16522        -0.07972        -0.25816
 C         0.58978        -0.00355        -0.00434        -0.00231         0.00005        -0.00135         5.34735         1.43013         0.26880         0.14948
H         1.22804         0.97153         0.01712        -0.00292        -0.00222         0.00513        -0.80692        -1.15905        -0.10938         0.05242
H         1.18836        -0.92266         0.01737        -0.00371         0.00226         0.00546         0.42574        -0.43630        -0.07970         0.05627
4
step: 8  T=       17.426K  Ek=     0.009010  Ep=    -1.213547  E_gap=    11.687963  Err=       0.0004289507106313  time_stamp= 1699036465.7028
 O        -0.59436        -0.00042         0.00122         0.00094         0.00000         0.00033        -5.09755         0.17361        -0.07521        -0.25811
 C         0.58919        -0.00344        -0.00486        -0.00059         0.00050        -0.00126         5.40551         1.38467         0.28026         0.15131
H         1.22626         0.96975         0.01908        -0.00592        -0.00654         0.00469        -0.75951        -1.10068        -0.11899         0.05144
H         1.18720        -0.92209         0.01949        -0.00203         0.00055         0.00514         0.45156        -0.45760        -0.08606         0.05537
4
step: 9  T=       27.684K  Ek=     0.014314  Ep=    -1.218916  E_gap=    11.682663  Err=       0.0003358723990022  time_stamp= 1699036466.0851
 O        -0.59422        -0.00041         0.00134        -0.00029         0.00004         0.00031        -5.10733         0.16105        -0.07097        -0.25943
 C         0.58931        -0.00315        -0.00534         0.00114         0.00093        -0.00117         5.33062         1.29718         0.29090         0.15518
H         1.22331         0.96629         0.02087        -0.00868        -0.01055         0.00422        -0.68032        -0.99551        -0.12702         0.04994
H         1.18673        -0.92222         0.02148        -0.00029        -0.00121         0.00480         0.45703        -0.46272        -0.09291         0.05431
4
step: 10  T=       53.791K  Ek=     0.027812  Ep=    -1.232658  E_gap=    11.681878  Err=       0.0005615355660041  time_stamp= 1699036466.5055
 O        -0.59459        -0.00039         0.00146        -0.00151         0.00008         0.00029        -5.01509         0.13250        -0.08101        -0.26060
 C         0.59010        -0.00269        -0.00579         0.00282         0.00133        -0.00107         5.14868         1.16625         0.31885         0.15714
H         1.21932         0.96131         0.02246        -0.01108        -0.01408         0.00372        -0.57246        -0.84814        -0.13530         0.04964
H         1.18696        -0.92306         0.02333         0.00142        -0.00296         0.00443         0.43887        -0.45061        -0.10254         0.05382
4
step: 1  T=      279.975K  Ek=     0.144759  Ep=    -1.350261  E_gap=    11.615326  Err=       0.0005726717790031  time_stamp= 1699036618.6221
 O        -0.60726        -0.00008         0.00016         0.00719        -0.00020         0.00041        -1.56968         0.02357        -0.02681        -0.26949
 C         0.60576        -0.00081        -0.00066        -0.00979        -0.00196        -0.00164         1.86408         0.36514         0.06013         0.13975
H         1.21476         0.94784         0.00264         0.01186         0.01884         0.00656        -0.28994        -0.39691        -0.01712         0.06480
H         1.20609        -0.93691         0.00264        -0.00928         0.00775         0.00656        -0.00446         0.00820        -0.01621         0.06494
4
step: 2  T=      241.103K  Ek=     0.124660  Ep=    -1.330656  E_gap=    11.631971  Err=       0.0004644786710331  time_stamp= 1699036619.0292
 O        -0.60446        -0.00016         0.00032         0.00672        -0.00019         0.00040        -2.29080         0.06137        -0.03343        -0.26686
 C         0.60196        -0.00157        -0.00131        -0.00906        -0.00180        -0.00162         2.66188         0.66075         0.09272         0.14177
H         1.21928         0.95507         0.00525         0.01043         0.01685         0.00646        -0.45620        -0.64223        -0.03147         0.06207
H         1.20237        -0.93380         0.00525        -0.00912         0.00761         0.00647         0.08512        -0.07990        -0.02782         0.06303
4
step: 3  T=      192.514K  Ek=     0.099537  Ep=    -1.305247  E_gap=    11.638737  Err=       0.0003782872631765  time_stamp= 1699036619.4512
 O        -0.60188        -0.00024         0.00048         0.00609        -0.00017         0.00039        -2.93217         0.10164        -0.02713        -0.26502
 C         0.59851        -0.00225        -0.00196        -0.00810        -0.00155        -0.00159         3.33924         0.89852         0.10801         0.14649
H         1.22310         0.96132         0.00781         0.00844         0.01402         0.00631        -0.58514        -0.83477        -0.04448         0.05803
H         1.19879        -0.93082         0.00781        -0.00862         0.00714         0.00635         0.17807        -0.16539        -0.03640         0.06050
4
step: 4  T=      140.544K  Ek=     0.072667  Ep=    -1.277618  E_gap=    11.643391  Err=       0.0004349701729206  time_stamp= 1699036619.8549
 O        -0.59958        -0.00030         0.00064         0.00531        -0.00015         0.00039        -3.55696         0.12744        -0.02818        -0.26367
 C         0.59548        -0.00281        -0.00258        -0.00692        -0.00122        -0.00155         3.98352         1.10892         0.13377         0.15101
H         1.22603         0.96629         0.01030         0.00600         0.01054         0.00612        -0.68911        -0.98628        -0.05961         0.05435
H         1.19548        -0.92809         0.01033        -0.00777         0.00635         0.00619         0.26255        -0.25008        -0.04598         0.05831
4
step: 5  T=       91.225K  Ek=     0.047167  Ep=    -1.251883  E_gap=    11.655156  Err=       0.0005024078903734  time_stamp= 1699036620.2561
 O        -0.59763        -0.00035         0.00079         0.00438        -0.00011         0.00038        -4.16017         0.13872        -0.04593        -0.26203
 C         0.59297        -0.00322        -0.00319        -0.00554        -0.00084        -0.00149         4.59747         1.28926         0.18172         0.15242
H         1.22790         0.96975         0.01270         0.00320         0.00655         0.00586        -0.76874        -1.09832        -0.07765         0.05250
H         1.19257        -0.92574         0.01277        -0.00664         0.00524         0.00600         0.33145        -0.32966        -0.05814         0.05711
4
step: 6  T=       50.885K  Ek=     0.026309  Ep=    -1.230846  E_gap=    11.673233  Err=       0.0003639894100879  time_stamp= 1699036620.6731
 O        -0.59608        -0.00039         0.00094         0.00332        -0.00008         0.00036        -4.65637         0.14932        -0.06918        -0.25987
 C         0.59104        -0.00348        -0.00378        -0.00399        -0.00041        -0.00143         5.08281         1.40426         0.23514         0.15080
H         1.22859         0.97153         0.01498         0.00018         0.00222         0.00552        -0.81147        -1.15943        -0.09549         0.05237
H         1.19017        -0.92390         0.01512        -0.00527         0.00385         0.00575         0.38503        -0.39415        -0.07047         0.05669
4
step: 7  T=       25.212K  Ek=     0.013036  Ep=    -1.217602  E_gap=    11.686691  Err=       0.0003930132987233  time_stamp= 1699036621.0948
 O        -0.59498        -0.00041         0.00108         0.00215        -0.00004         0.00035        -4.96617         0.16522        -0.07972        -0.25816
 C         0.58978        -0.00355        -0.00434        -0.00231         0.00005        -0.00135         5.34735         1.43013         0.26880         0.14948
H         1.22804         0.97153         0.01712        -0.00292        -0.00222         0.00513        -0.80692        -1.15905        -0.10938         0.05242
H         1.18836        -0.92266         0.01737        -0.00371         0.00226         0.00546         0.42574        -0.43630        -0.07970         0.05627
4
step: 8  T=       17.426K  Ek=     0.009010  Ep=    -1.213547  E_gap=    11.687963  Err=       0.0004289507106313  time_stamp= 1699036621.5186
 O        -0.59436        -0.00042         0.00122         0.00094         0.00000         0.00033        -5.09755         0.17361        -0.07521        -0.25811
 C         0.58919        -0.00344        -0.00486        -0.00059         0.00050        -0.00126         5.40551         1.38467         0.28026         0.15131
H         1.22626         0.96975         0.01908        -0.00592        -0.00654         0.00469        -0.75951        -1.10068        -0.11899         0.05144
H         1.18720        -0.92209         0.01949        -0.00203         0.00055         0.00514         0.45156        -0.45760        -0.08606         0.05537
4
step: 9  T=       27.684K  Ek=     0.014314  Ep=    -1.218916  E_gap=    11.682663  Err=       0.0003358723990022  time_stamp= 1699036621.9399
 O        -0.59422        -0.00041         0.00134        -0.00029         0.00004         0.00031        -5.10733         0.16105        -0.07097        -0.25943
 C         0.58931        -0.00315        -0.00534         0.00114         0.00093        -0.00117         5.33062         1.29718         0.29090         0.15518
H         1.22331         0.96629         0.02087        -0.00868        -0.01055         0.00422        -0.68032        -0.99551        -0.12702         0.04994
H         1.18673        -0.92222         0.02148        -0.00029        -0.00121         0.00480         0.45703        -0.46272        -0.09291         0.05431
4
step: 10  T=       53.791K  Ek=     0.027812  Ep=    -1.232658  E_gap=    11.681878  Err=       0.0005615355660041  time_stamp= 1699036622.3626
 O        -0.59459        -0.00039         0.00146        -0.00151         0.00008         0.00029        -5.01509         0.13250        -0.08101        -0.26060
 C         0.59010        -0.00269        -0.00579         0.00282         0.00133        -0.00107         5.14868         1.16625         0.31885         0.15714
H         1.21932         0.96131         0.02246        -0.01108        -0.01408         0.00372        -0.57246        -0.84814        -0.13530         0.04964
H         1.18696        -0.92306         0.02333         0.00142        -0.00296         0.00443         0.43887        -0.45061        -0.10254         0.05382
