4
step: 1  T=      381.696K  Ek=  0.197352348  Ep=  1.419623170  E_gap=    13.427323  Err=       0.0000621852937208  time_stamp= 1758753755.1416
B        -0.00062         0.00112        -0.00086
H         1.19110         0.00464         0.00306
H        -0.58466         1.02690         0.00306
H        -0.59979        -1.04360         0.00306
4
step: 2  T=      425.243K  Ek=  0.219867748  Ep=  1.396691669  E_gap=    13.419213  Err=       0.0001225955433017  time_stamp= 1758753755.2016
B        -0.00123         0.00220        -0.00170
H         1.17911         0.00921         0.00608
H        -0.56802         1.02135         0.00608
H        -0.59787        -1.05418         0.00608
4
step: 3  T=      480.487K  Ek=  0.248431069  Ep=  1.367700768  E_gap=    13.420928  Err=       0.0002581841083137  time_stamp= 1758753755.2900
B        -0.00185         0.00319        -0.00253
H         1.16439         0.01366         0.00903
H        -0.55040         1.01368         0.00903
H        -0.59419        -1.06150         0.00903
4
step: 4  T=      537.550K  Ek=  0.277935103  Ep=  1.337880282  E_gap=    13.436067  Err=       0.0002245902687293  time_stamp= 1758753755.3656
B        -0.00247         0.00403        -0.00332
H         1.14744         0.01791         0.01188
H        -0.53219         1.00430         0.01189
H        -0.58875        -1.06542         0.01186
4
step: 5  T=      585.017K  Ek=  0.302477124  Ep=  1.313005039  E_gap=    13.462513  Err=       0.0002421388060447  time_stamp= 1758753755.4257
B        -0.00312         0.00468        -0.00408
H         1.12883         0.02190         0.01460
H        -0.51383         0.99375         0.01462
H        -0.58158        -1.06588         0.01455
4
step: 6  T=      612.285K  Ek=  0.316575993  Ep=  1.298632796  E_gap=    13.494303  Err=       0.0002541436493036  time_stamp= 1758753755.4859
B        -0.00379         0.00510        -0.00479
H         1.10929         0.02556         0.01716
H        -0.49579         0.98262         0.01720
H        -0.57282        -1.06292         0.01706
4
step: 7  T=      612.300K  Ek=  0.316583689  Ep=  1.298414983  E_gap=    13.526875  Err=       0.0001619808480782  time_stamp= 1758753755.5457
B        -0.00452         0.00524        -0.00546
H         1.08963         0.02885         0.01956
H        -0.47859         0.97162         0.01962
H        -0.56261        -1.05667         0.01935
4
step: 8  T=      583.663K  Ek=  0.301777258  Ep=  1.313245310  E_gap=    13.557757  Err=       0.0001859942788764  time_stamp= 1758753755.6058
B        -0.00530         0.00506        -0.00606
H         1.07072         0.03169         0.02176
H        -0.46273         0.96146         0.02186
H        -0.55118        -1.04738         0.02139
4
step: 9  T=      531.343K  Ek=  0.274725799  Ep=  1.340667375  E_gap=    13.582955  Err=       0.0003441252712613  time_stamp= 1758753755.6658
B        -0.00615         0.00452        -0.00661
H         1.05348         0.03405         0.02377
H        -0.44869         0.95286         0.02392
H        -0.53879        -1.03541         0.02317
4
step: 10  T=      465.719K  Ek=  0.240795250  Ep=  1.375155132  E_gap=    13.597802  Err=       0.0002633055333693  time_stamp= 1758753755.7255
B        -0.00710         0.00362        -0.00709
H         1.03882         0.03589         0.02559
H        -0.43688         0.94649         0.02580
H        -0.52577        -1.02122         0.02466
