4
step: 1  T=      385.338K  Ek=  0.199235115  Ep=  1.420770276  E_gap=    13.426382  Err=       0.0000643723757961  time_stamp= 1758753755.8555
B        -0.00068         0.00108        -0.00092
H         1.19137         0.00473         0.00297
H        -0.58475         1.02741         0.00330
H        -0.59936        -1.04369         0.00364
4
step: 2  T=      428.795K  Ek=  0.221704028  Ep=  1.401172639  E_gap=    13.414316  Err=       0.0001285606303597  time_stamp= 1758753755.9131
B        -0.00138         0.00212        -0.00197
H         1.17979         0.00914         0.00706
H        -0.56829         1.02311         0.00668
H        -0.59672        -1.05503         0.00734
4
step: 3  T=      474.279K  Ek=  0.245221227  Ep=  1.373081922  E_gap=    13.413453  Err=       0.0002754757963568  time_stamp= 1758753755.9714
B        -0.00205         0.00307        -0.00288
H         1.16495         0.01328         0.01016
H        -0.55072         1.01669         0.01051
H        -0.59227        -1.06285         0.01021
4
step: 4  T=      512.546K  Ek=  0.265006530  Ep=  1.345550189  E_gap=    13.425495  Err=       0.0002414947635489  time_stamp= 1758753756.0295
B        -0.00257         0.00396        -0.00364
H         1.14761         0.01723         0.01323
H        -0.53328         1.00842         0.01316
H        -0.58671        -1.06808         0.01262
4
step: 5  T=      536.815K  Ek=  0.277554621  Ep=  1.320118536  E_gap=    13.451255  Err=       0.0002593921516076  time_stamp= 1758753756.0858
B        -0.00310         0.00463        -0.00429
H         1.12862         0.02103         0.01564
H        -0.51616         0.99873         0.01589
H        -0.57925        -1.06938         0.01448
4
step: 6  T=      540.334K  Ek=  0.279374153  Ep=  1.301954450  E_gap=    13.487289  Err=       0.0003482395800826  time_stamp= 1758753756.1446
B        -0.00345         0.00491        -0.00493
H         1.10820         0.02376         0.01870
H        -0.49993         0.98975         0.01767
H        -0.57131        -1.06618         0.01650
4
step: 7  T=      539.900K  Ek=  0.279149780  Ep=  1.294345103  E_gap=    13.522518  Err=       0.0001746491616285  time_stamp= 1758753756.2030
B        -0.00402         0.00489        -0.00553
H         1.08916         0.02665         0.02082
H        -0.48451         0.98046         0.01996
H        -0.56157        -1.05954         0.01852
4
step: 8  T=      533.105K  Ek=  0.275636357  Ep=  1.299873856  E_gap=    13.555503  Err=       0.0001708622323786  time_stamp= 1758753756.2614
B        -0.00472         0.00460        -0.00600
H         1.07116         0.02945         0.02264
H        -0.46968         0.97116         0.02180
H        -0.55089        -1.04996         0.01990
4
step: 9  T=      509.059K  Ek=  0.263204034  Ep=  1.316086601  E_gap=    13.584749  Err=       0.0003770845245965  time_stamp= 1758753756.3197
B        -0.00545         0.00396        -0.00632
H         1.05432         0.03141         0.02389
H        -0.45657         0.96323         0.02242
H        -0.53931        -1.03711         0.02146
4
step: 10  T=      470.784K  Ek=  0.243414097  Ep=  1.343232990  E_gap=    13.608130  Err=       0.0002864970773862  time_stamp= 1758753756.3754
B        -0.00619         0.00306        -0.00645
H         1.03926         0.03309         0.02448
H        -0.44564         0.95629         0.02319
H        -0.52719        -1.02217         0.02149
